h 1 0 7 tcp 40 ------- 0 0.0 5.0 0 0
+ 1.04 0 7 tcp 40 ------- 0 0.0 5.0 0 0
- 1.04 0 7 tcp 40 ------- 0 0.0 5.0 0 0
r 1.080644 7 5 tcp 40 ------- 0 0.0 5.0 0 0
h 1.080644 5 7 ack 40 ------- 0 5.0 0.0 0 1
+ 1.120644 5 7 ack 40 ------- 0 5.0 0.0 0 1
- 1.120644 5 7 ack 40 ------- 0 5.0 0.0 0 1
r 1.161288 7 0 ack 40 ------- 0 5.0 0.0 0 1
h 1.161288 0 7 tcp 1040 ------- 0 0.0 5.0 1 2
h 1.161288 0 7 tcp 1040 ------- 0 0.0 5.0 2 3
+ 1.201288 0 7 tcp 1040 ------- 0 0.0 5.0 1 2
- 1.201288 0 7 tcp 1040 ------- 0 0.0 5.0 1 2
+ 1.201288 0 7 tcp 1040 ------- 0 0.0 5.0 2 3
- 1.211948 0 7 tcp 1040 ------- 0 0.0 5.0 2 3
r 1.251832 7 5 tcp 1040 ------- 0 0.0 5.0 1 2
h 1.251832 5 7 ack 40 ------- 0 5.0 0.0 1 4
r 1.262492 7 5 tcp 1040 ------- 0 0.0 5.0 2 3
h 1.262492 5 7 ack 40 ------- 0 5.0 0.0 2 5
+ 1.291832 5 7 ack 40 ------- 0 5.0 0.0 1 4
- 1.291832 5 7 ack 40 ------- 0 5.0 0.0 1 4
+ 1.302492 5 7 ack 40 ------- 0 5.0 0.0 2 5
- 1.302492 5 7 ack 40 ------- 0 5.0 0.0 2 5
r 1.332476 7 0 ack 40 ------- 0 5.0 0.0 1 4
h 1.332476 0 7 tcp 1040 ------- 0 0.0 5.0 3 6
h 1.332476 0 7 tcp 1040 ------- 0 0.0 5.0 4 7
r 1.343136 7 0 ack 40 ------- 0 5.0 0.0 2 5
h 1.343136 0 7 tcp 1040 ------- 0 0.0 5.0 5 8
h 1.343136 0 7 tcp 1040 ------- 0 0.0 5.0 6 9
+ 1.372476 0 7 tcp 1040 ------- 0 0.0 5.0 3 6
- 1.372476 0 7 tcp 1040 ------- 0 0.0 5.0 3 6
+ 1.372476 0 7 tcp 1040 ------- 0 0.0 5.0 4 7
+ 1.383136 0 7 tcp 1040 ------- 0 0.0 5.0 5 8
+ 1.383136 0 7 tcp 1040 ------- 0 0.0 5.0 6 9
- 1.383136 0 7 tcp 1040 ------- 0 0.0 5.0 4 7
- 1.393796 0 7 tcp 1040 ------- 0 0.0 5.0 5 8
- 1.404456 0 7 tcp 1040 ------- 0 0.0 5.0 6 9
r 1.42302 7 5 tcp 1040 ------- 0 0.0 5.0 3 6
h 1.42302 5 7 ack 40 ------- 0 5.0 0.0 3 10
r 1.43368 7 5 tcp 1040 ------- 0 0.0 5.0 4 7
h 1.43368 5 7 ack 40 ------- 0 5.0 0.0 4 11
r 1.44434 7 5 tcp 1040 ------- 0 0.0 5.0 5 8
h 1.44434 5 7 ack 40 ------- 0 5.0 0.0 5 12
r 1.455 7 5 tcp 1040 ------- 0 0.0 5.0 6 9
h 1.455 5 7 ack 40 ------- 0 5.0 0.0 6 13
+ 1.46302 5 7 ack 40 ------- 0 5.0 0.0 3 10
- 1.46302 5 7 ack 40 ------- 0 5.0 0.0 3 10
+ 1.47368 5 7 ack 40 ------- 0 5.0 0.0 4 11
- 1.47368 5 7 ack 40 ------- 0 5.0 0.0 4 11
+ 1.48434 5 7 ack 40 ------- 0 5.0 0.0 5 12
- 1.48434 5 7 ack 40 ------- 0 5.0 0.0 5 12
+ 1.495 5 7 ack 40 ------- 0 5.0 0.0 6 13
- 1.495 5 7 ack 40 ------- 0 5.0 0.0 6 13
r 1.503664 7 0 ack 40 ------- 0 5.0 0.0 3 10
h 1.503664 0 7 tcp 1040 ------- 0 0.0 5.0 7 14
h 1.503664 0 7 tcp 1040 ------- 0 0.0 5.0 8 15
r 1.514324 7 0 ack 40 ------- 0 5.0 0.0 4 11
h 1.514324 0 7 tcp 1040 ------- 0 0.0 5.0 9 16
h 1.514324 0 7 tcp 1040 ------- 0 0.0 5.0 10 17
r 1.524984 7 0 ack 40 ------- 0 5.0 0.0 5 12
h 1.524984 0 7 tcp 1040 ------- 0 0.0 5.0 11 18
h 1.524984 0 7 tcp 1040 ------- 0 0.0 5.0 12 19
r 1.535644 7 0 ack 40 ------- 0 5.0 0.0 6 13
h 1.535644 0 7 tcp 1040 ------- 0 0.0 5.0 13 20
h 1.535644 0 7 tcp 1040 ------- 0 0.0 5.0 14 21
+ 1.543664 0 7 tcp 1040 ------- 0 0.0 5.0 7 14
- 1.543664 0 7 tcp 1040 ------- 0 0.0 5.0 7 14
+ 1.543664 0 7 tcp 1040 ------- 0 0.0 5.0 8 15
+ 1.554324 0 7 tcp 1040 ------- 0 0.0 5.0 9 16
+ 1.554324 0 7 tcp 1040 ------- 0 0.0 5.0 10 17
- 1.554324 0 7 tcp 1040 ------- 0 0.0 5.0 8 15
+ 1.564984 0 7 tcp 1040 ------- 0 0.0 5.0 11 18
+ 1.564984 0 7 tcp 1040 ------- 0 0.0 5.0 12 19
- 1.564984 0 7 tcp 1040 ------- 0 0.0 5.0 9 16
+ 1.575644 0 7 tcp 1040 ------- 0 0.0 5.0 13 20
+ 1.575644 0 7 tcp 1040 ------- 0 0.0 5.0 14 21
- 1.575644 0 7 tcp 1040 ------- 0 0.0 5.0 10 17
- 1.586304 0 7 tcp 1040 ------- 0 0.0 5.0 11 18
r 1.594208 7 5 tcp 1040 ------- 0 0.0 5.0 7 14
h 1.594208 5 7 ack 40 ------- 0 5.0 0.0 7 22
- 1.596964 0 7 tcp 1040 ------- 0 0.0 5.0 12 19
r 1.604868 7 5 tcp 1040 ------- 0 0.0 5.0 8 15
h 1.604868 5 7 ack 40 ------- 0 5.0 0.0 8 23
- 1.607624 0 7 tcp 1040 ------- 0 0.0 5.0 13 20
r 1.615528 7 5 tcp 1040 ------- 0 0.0 5.0 9 16
h 1.615528 5 7 ack 40 ------- 0 5.0 0.0 9 24
- 1.618284 0 7 tcp 1040 ------- 0 0.0 5.0 14 21
r 1.626188 7 5 tcp 1040 ------- 0 0.0 5.0 10 17
h 1.626188 5 7 ack 40 ------- 0 5.0 0.0 10 25
+ 1.634208 5 7 ack 40 ------- 0 5.0 0.0 7 22
- 1.634208 5 7 ack 40 ------- 0 5.0 0.0 7 22
r 1.636848 7 5 tcp 1040 ------- 0 0.0 5.0 11 18
h 1.636848 5 7 ack 40 ------- 0 5.0 0.0 11 26
+ 1.644868 5 7 ack 40 ------- 0 5.0 0.0 8 23
- 1.644868 5 7 ack 40 ------- 0 5.0 0.0 8 23
r 1.647508 7 5 tcp 1040 ------- 0 0.0 5.0 12 19
h 1.647508 5 7 ack 40 ------- 0 5.0 0.0 12 27
+ 1.655528 5 7 ack 40 ------- 0 5.0 0.0 9 24
- 1.655528 5 7 ack 40 ------- 0 5.0 0.0 9 24
r 1.658168 7 5 tcp 1040 ------- 0 0.0 5.0 13 20
h 1.658168 5 7 ack 40 ------- 0 5.0 0.0 13 28
+ 1.666188 5 7 ack 40 ------- 0 5.0 0.0 10 25
- 1.666188 5 7 ack 40 ------- 0 5.0 0.0 10 25
r 1.668828 7 5 tcp 1040 ------- 0 0.0 5.0 14 21
h 1.668828 5 7 ack 40 ------- 0 5.0 0.0 14 29
r 1.674852 7 0 ack 40 ------- 0 5.0 0.0 7 22
h 1.674852 0 7 tcp 1040 ------- 0 0.0 5.0 15 30
h 1.674852 0 7 tcp 1040 ------- 0 0.0 5.0 16 31
+ 1.676848 5 7 ack 40 ------- 0 5.0 0.0 11 26
- 1.676848 5 7 ack 40 ------- 0 5.0 0.0 11 26
r 1.685512 7 0 ack 40 ------- 0 5.0 0.0 8 23
h 1.685512 0 7 tcp 1040 ------- 0 0.0 5.0 17 32
h 1.685512 0 7 tcp 1040 ------- 0 0.0 5.0 18 33
+ 1.687508 5 7 ack 40 ------- 0 5.0 0.0 12 27
- 1.687508 5 7 ack 40 ------- 0 5.0 0.0 12 27
r 1.696172 7 0 ack 40 ------- 0 5.0 0.0 9 24
h 1.696172 0 7 tcp 1040 ------- 0 0.0 5.0 19 34
h 1.696172 0 7 tcp 1040 ------- 0 0.0 5.0 20 35
+ 1.698168 5 7 ack 40 ------- 0 5.0 0.0 13 28
- 1.698168 5 7 ack 40 ------- 0 5.0 0.0 13 28
r 1.706832 7 0 ack 40 ------- 0 5.0 0.0 10 25
h 1.706832 0 7 tcp 1040 ------- 0 0.0 5.0 21 36
h 1.706832 0 7 tcp 1040 ------- 0 0.0 5.0 22 37
+ 1.708828 5 7 ack 40 ------- 0 5.0 0.0 14 29
- 1.708828 5 7 ack 40 ------- 0 5.0 0.0 14 29
+ 1.714852 0 7 tcp 1040 ------- 0 0.0 5.0 15 30
- 1.714852 0 7 tcp 1040 ------- 0 0.0 5.0 15 30
+ 1.714852 0 7 tcp 1040 ------- 0 0.0 5.0 16 31
r 1.717492 7 0 ack 40 ------- 0 5.0 0.0 11 26
h 1.717492 0 7 tcp 1040 ------- 0 0.0 5.0 23 38
h 1.717492 0 7 tcp 1040 ------- 0 0.0 5.0 24 39
+ 1.725512 0 7 tcp 1040 ------- 0 0.0 5.0 17 32
+ 1.725512 0 7 tcp 1040 ------- 0 0.0 5.0 18 33
- 1.725512 0 7 tcp 1040 ------- 0 0.0 5.0 16 31
r 1.728152 7 0 ack 40 ------- 0 5.0 0.0 12 27
h 1.728152 0 7 tcp 1040 ------- 0 0.0 5.0 25 40
h 1.728152 0 7 tcp 1040 ------- 0 0.0 5.0 26 41
+ 1.736172 0 7 tcp 1040 ------- 0 0.0 5.0 19 34
+ 1.736172 0 7 tcp 1040 ------- 0 0.0 5.0 20 35
- 1.736172 0 7 tcp 1040 ------- 0 0.0 5.0 17 32
r 1.738812 7 0 ack 40 ------- 0 5.0 0.0 13 28
h 1.738812 0 7 tcp 1040 ------- 0 0.0 5.0 27 42
h 1.738812 0 7 tcp 1040 ------- 0 0.0 5.0 28 43
+ 1.746832 0 7 tcp 1040 ------- 0 0.0 5.0 21 36
+ 1.746832 0 7 tcp 1040 ------- 0 0.0 5.0 22 37
- 1.746832 0 7 tcp 1040 ------- 0 0.0 5.0 18 33
r 1.749472 7 0 ack 40 ------- 0 5.0 0.0 14 29
h 1.749472 0 7 tcp 1040 ------- 0 0.0 5.0 29 44
h 1.749472 0 7 tcp 1040 ------- 0 0.0 5.0 30 45
+ 1.757492 0 7 tcp 1040 ------- 0 0.0 5.0 23 38
+ 1.757492 0 7 tcp 1040 ------- 0 0.0 5.0 24 39
- 1.757492 0 7 tcp 1040 ------- 0 0.0 5.0 19 34
r 1.765396 7 5 tcp 1040 ------- 0 0.0 5.0 15 30
h 1.765396 5 7 ack 40 ------- 0 5.0 0.0 15 46
+ 1.768152 0 7 tcp 1040 ------- 0 0.0 5.0 25 40
+ 1.768152 0 7 tcp 1040 ------- 0 0.0 5.0 26 41
- 1.768152 0 7 tcp 1040 ------- 0 0.0 5.0 20 35
r 1.776056 7 5 tcp 1040 ------- 0 0.0 5.0 16 31
h 1.776056 5 7 ack 40 ------- 0 5.0 0.0 16 47
+ 1.778812 0 7 tcp 1040 ------- 0 0.0 5.0 27 42
+ 1.778812 0 7 tcp 1040 ------- 0 0.0 5.0 28 43
- 1.778812 0 7 tcp 1040 ------- 0 0.0 5.0 21 36
r 1.786716 7 5 tcp 1040 ------- 0 0.0 5.0 17 32
h 1.786716 5 7 ack 40 ------- 0 5.0 0.0 17 48
+ 1.789472 0 7 tcp 1040 ------- 0 0.0 5.0 29 44
+ 1.789472 0 7 tcp 1040 ------- 0 0.0 5.0 30 45
- 1.789472 0 7 tcp 1040 ------- 0 0.0 5.0 22 37
r 1.797376 7 5 tcp 1040 ------- 0 0.0 5.0 18 33
h 1.797376 5 7 ack 40 ------- 0 5.0 0.0 18 49
- 1.800132 0 7 tcp 1040 ------- 0 0.0 5.0 23 38
+ 1.805396 5 7 ack 40 ------- 0 5.0 0.0 15 46
- 1.805396 5 7 ack 40 ------- 0 5.0 0.0 15 46
r 1.808036 7 5 tcp 1040 ------- 0 0.0 5.0 19 34
h 1.808036 5 7 ack 40 ------- 0 5.0 0.0 19 50
- 1.810792 0 7 tcp 1040 ------- 0 0.0 5.0 24 39
+ 1.816056 5 7 ack 40 ------- 0 5.0 0.0 16 47
- 1.816056 5 7 ack 40 ------- 0 5.0 0.0 16 47
r 1.818696 7 5 tcp 1040 ------- 0 0.0 5.0 20 35
h 1.818696 5 7 ack 40 ------- 0 5.0 0.0 20 51
- 1.82238 0 7 tcp 1040 ------- 0 0.0 5.0 25 40
+ 1.826716 5 7 ack 40 ------- 0 5.0 0.0 17 48
r 1.829356 7 5 tcp 1040 ------- 0 0.0 5.0 21 36
h 1.829356 5 7 ack 40 ------- 0 5.0 0.0 21 52
- 1.833208 0 7 tcp 1040 ------- 0 0.0 5.0 26 41
+ 1.837376 5 7 ack 40 ------- 0 5.0 0.0 18 49
r 1.840016 7 5 tcp 1040 ------- 0 0.0 5.0 22 37
h 1.840016 5 7 ack 40 ------- 0 5.0 0.0 22 53
- 1.844676 0 7 tcp 1040 ------- 0 0.0 5.0 27 42
+ 1.848036 5 7 ack 40 ------- 0 5.0 0.0 19 50
r 1.850676 7 5 tcp 1040 ------- 0 0.0 5.0 23 38
h 1.850676 5 7 ack 40 ------- 0 5.0 0.0 23 54
r 1.8516 7 0 ack 40 ------- 0 5.0 0.0 15 46
h 1.8516 0 7 tcp 1040 ------- 0 0.0 5.0 31 55
h 1.8516 0 7 tcp 1040 ------- 0 0.0 5.0 32 56
- 1.855504 0 7 tcp 1040 ------- 0 0.0 5.0 28 43
+ 1.858696 5 7 ack 40 ------- 0 5.0 0.0 20 51
r 1.862264 7 5 tcp 1040 ------- 0 0.0 5.0 24 39
h 1.862264 5 7 ack 40 ------- 0 5.0 0.0 24 57
- 1.866972 0 7 tcp 1040 ------- 0 0.0 5.0 29 44
+ 1.869356 5 7 ack 40 ------- 0 5.0 0.0 21 52
r 1.873092 7 5 tcp 1040 ------- 0 0.0 5.0 25 40
h 1.873092 5 7 ack 40 ------- 0 5.0 0.0 25 58
- 1.8778 0 7 tcp 1040 ------- 0 0.0 5.0 30 45
+ 1.880016 5 7 ack 40 ------- 0 5.0 0.0 22 53
r 1.88456 7 5 tcp 1040 ------- 0 0.0 5.0 26 41
h 1.88456 5 7 ack 40 ------- 0 5.0 0.0 26 59
- 1.889224 5 7 ack 40 ------- 0 5.0 0.0 17 48
- 1.889984 5 7 ack 40 ------- 0 5.0 0.0 18 49
+ 1.890676 5 7 ack 40 ------- 0 5.0 0.0 23 54
- 1.890744 5 7 ack 40 ------- 0 5.0 0.0 19 50
- 1.891504 5 7 ack 40 ------- 0 5.0 0.0 20 51
+ 1.8916 0 7 tcp 1040 ------- 0 0.0 5.0 31 55
- 1.8916 0 7 tcp 1040 ------- 0 0.0 5.0 31 55
+ 1.8916 0 7 tcp 1040 ------- 0 0.0 5.0 32 56
- 1.892264 5 7 ack 40 ------- 0 5.0 0.0 21 52
- 1.893192 5 7 ack 40 ------- 0 5.0 0.0 22 53
- 1.89476 5 7 ack 40 ------- 0 5.0 0.0 23 54
r 1.895388 7 5 tcp 1040 ------- 0 0.0 5.0 27 42
h 1.895388 5 7 ack 40 ------- 0 5.0 0.0 27 60
+ 1.902264 5 7 ack 40 ------- 0 5.0 0.0 24 57
- 1.902264 5 7 ack 40 ------- 0 5.0 0.0 24 57
- 1.906184 0 7 tcp 1040 ------- 0 0.0 5.0 32 56
r 1.906856 7 5 tcp 1040 ------- 0 0.0 5.0 28 43
h 1.906856 5 7 ack 40 ------- 0 5.0 0.0 28 61
+ 1.913092 5 7 ack 40 ------- 0 5.0 0.0 25 58
- 1.913092 5 7 ack 40 ------- 0 5.0 0.0 25 58
r 1.917684 7 5 tcp 1040 ------- 0 0.0 5.0 29 44
h 1.917684 5 7 ack 40 ------- 0 5.0 0.0 29 62
+ 1.92456 5 7 ack 40 ------- 0 5.0 0.0 26 59
- 1.92456 5 7 ack 40 ------- 0 5.0 0.0 26 59
r 1.928344 7 5 tcp 1040 ------- 0 0.0 5.0 30 45
h 1.928344 5 7 ack 40 ------- 0 5.0 0.0 30 63
r 1.929108 7 0 ack 40 ------- 0 5.0 0.0 16 47
h 1.929108 0 7 tcp 1040 ------- 0 0.0 5.0 33 64
h 1.929108 0 7 tcp 1040 ------- 0 0.0 5.0 34 65
r 1.929868 7 0 ack 40 ------- 0 5.0 0.0 17 48
h 1.929868 0 7 tcp 1040 ------- 0 0.0 5.0 35 66
h 1.929868 0 7 tcp 1040 ------- 0 0.0 5.0 36 67
r 1.930628 7 0 ack 40 ------- 0 5.0 0.0 18 49
h 1.930628 0 7 tcp 1040 ------- 0 0.0 5.0 37 68
h 1.930628 0 7 tcp 1040 ------- 0 0.0 5.0 38 69
r 1.931388 7 0 ack 40 ------- 0 5.0 0.0 19 50
h 1.931388 0 7 tcp 1040 ------- 0 0.0 5.0 39 70
r 1.932148 7 0 ack 40 ------- 0 5.0 0.0 20 51
h 1.932148 0 7 tcp 1040 ------- 0 0.0 5.0 40 71
r 1.933076 7 0 ack 40 ------- 0 5.0 0.0 21 52
h 1.933076 0 7 tcp 1040 ------- 0 0.0 5.0 41 72
r 1.934644 7 0 ack 40 ------- 0 5.0 0.0 22 53
h 1.934644 0 7 tcp 1040 ------- 0 0.0 5.0 42 73
+ 1.935388 5 7 ack 40 ------- 0 5.0 0.0 27 60
- 1.935388 5 7 ack 40 ------- 0 5.0 0.0 27 60
r 1.935404 7 0 ack 40 ------- 0 5.0 0.0 23 54
h 1.935404 0 7 tcp 1040 ------- 0 0.0 5.0 43 74
r 1.946068 7 5 tcp 1040 ------- 0 0.0 5.0 31 55
h 1.946068 5 7 ack 40 ------- 0 5.0 0.0 31 75
+ 1.946856 5 7 ack 40 ------- 0 5.0 0.0 28 61
- 1.946856 5 7 ack 40 ------- 0 5.0 0.0 28 61
r 1.9478 7 0 ack 40 ------- 0 5.0 0.0 24 57
h 1.9478 0 7 tcp 1040 ------- 0 0.0 5.0 44 76
+ 1.957684 5 7 ack 40 ------- 0 5.0 0.0 29 62
- 1.957684 5 7 ack 40 ------- 0 5.0 0.0 29 62
r 1.958464 7 5 tcp 1040 ------- 0 0.0 5.0 32 56
h 1.958464 5 7 ack 40 ------- 0 5.0 0.0 32 77
r 1.959228 7 0 ack 40 ------- 0 5.0 0.0 25 58
h 1.959228 0 7 tcp 1040 ------- 0 0.0 5.0 45 78
r 1.965204 7 0 ack 40 ------- 0 5.0 0.0 26 59
h 1.965204 0 7 tcp 1040 ------- 0 0.0 5.0 46 79
+ 1.968344 5 7 ack 40 ------- 0 5.0 0.0 30 63
- 1.968344 5 7 ack 40 ------- 0 5.0 0.0 30 63
+ 1.969108 0 7 tcp 1040 ------- 0 0.0 5.0 33 64
- 1.969108 0 7 tcp 1040 ------- 0 0.0 5.0 33 64
+ 1.969108 0 7 tcp 1040 ------- 0 0.0 5.0 34 65
+ 1.969868 0 7 tcp 1040 ------- 0 0.0 5.0 35 66
+ 1.969868 0 7 tcp 1040 ------- 0 0.0 5.0 36 67
+ 1.970628 0 7 tcp 1040 ------- 0 0.0 5.0 37 68
+ 1.970628 0 7 tcp 1040 ------- 0 0.0 5.0 38 69
+ 1.971388 0 7 tcp 1040 ------- 0 0.0 5.0 39 70
+ 1.972148 0 7 tcp 1040 ------- 0 0.0 5.0 40 71
+ 1.973076 0 7 tcp 1040 ------- 0 0.0 5.0 41 72
+ 1.974644 0 7 tcp 1040 ------- 0 0.0 5.0 42 73
+ 1.975404 0 7 tcp 1040 ------- 0 0.0 5.0 43 74
r 1.976032 7 0 ack 40 ------- 0 5.0 0.0 27 60
h 1.976032 0 7 tcp 1040 ------- 0 0.0 5.0 47 80
- 1.979768 0 7 tcp 1040 ------- 0 0.0 5.0 34 65
+ 1.986068 5 7 ack 40 ------- 0 5.0 0.0 31 75
- 1.986068 5 7 ack 40 ------- 0 5.0 0.0 31 75
r 1.9875 7 0 ack 40 ------- 0 5.0 0.0 28 61
h 1.9875 0 7 tcp 1040 ------- 0 0.0 5.0 48 81
+ 1.9878 0 7 tcp 1040 ------- 0 0.0 5.0 44 76
- 1.990428 0 7 tcp 1040 ------- 0 0.0 5.0 35 66
r 1.998328 7 0 ack 40 ------- 0 5.0 0.0 29 62
h 1.998328 0 7 tcp 1040 ------- 0 0.0 5.0 49 82
+ 1.998464 5 7 ack 40 ------- 0 5.0 0.0 32 77
+ 1.999228 0 7 tcp 1040 ------- 0 0.0 5.0 45 78
- 2.001256 0 7 tcp 1040 ------- 0 0.0 5.0 36 67
+ 2.005204 0 7 tcp 1040 ------- 0 0.0 5.0 46 79
r 2.008988 7 0 ack 40 ------- 0 5.0 0.0 30 63
h 2.008988 0 7 tcp 1040 ------- 0 0.0 5.0 50 83
- 2.013524 0 7 tcp 1040 ------- 0 0.0 5.0 37 68
+ 2.016032 0 7 tcp 1040 ------- 0 0.0 5.0 47 80
r 2.019652 7 5 tcp 1040 ------- 0 0.0 5.0 33 64
h 2.019652 5 7 ack 40 ------- 0 5.0 0.0 33 84
- 2.024352 0 7 tcp 1040 ------- 0 0.0 5.0 38 69
+ 2.0275 0 7 tcp 1040 ------- 0 0.0 5.0 48 81
r 2.030312 7 5 tcp 1040 ------- 0 0.0 5.0 34 65
h 2.030312 5 7 ack 40 ------- 0 5.0 0.0 34 85
- 2.03582 0 7 tcp 1040 ------- 0 0.0 5.0 39 70
+ 2.038328 0 7 tcp 1040 ------- 0 0.0 5.0 49 82
r 2.04114 7 5 tcp 1040 ------- 0 0.0 5.0 35 66
h 2.04114 5 7 ack 40 ------- 0 5.0 0.0 35 86
- 2.04648 0 7 tcp 1040 ------- 0 0.0 5.0 40 71
+ 2.048988 0 7 tcp 1040 ------- 0 0.0 5.0 50 83
r 2.053408 7 5 tcp 1040 ------- 0 0.0 5.0 36 67
h 2.053408 5 7 ack 40 ------- 0 5.0 0.0 36 87
- 2.057948 0 7 tcp 1040 ------- 0 0.0 5.0 41 72
+ 2.059652 5 7 ack 40 ------- 0 5.0 0.0 33 84
r 2.064236 7 5 tcp 1040 ------- 0 0.0 5.0 37 68
h 2.064236 5 7 ack 40 ------- 0 5.0 0.0 37 88
- 2.069416 0 7 tcp 1040 ------- 0 0.0 5.0 42 73
+ 2.070312 5 7 ack 40 ------- 0 5.0 0.0 34 85
r 2.075704 7 5 tcp 1040 ------- 0 0.0 5.0 38 69
h 2.075704 5 7 ack 40 ------- 0 5.0 0.0 38 89
- 2.080076 0 7 tcp 1040 ------- 0 0.0 5.0 43 74
+ 2.08114 5 7 ack 40 ------- 0 5.0 0.0 35 86
r 2.086364 7 5 tcp 1040 ------- 0 0.0 5.0 39 70
h 2.086364 5 7 ack 40 ------- 0 5.0 0.0 39 90
- 2.090736 0 7 tcp 1040 ------- 0 0.0 5.0 44 76
+ 2.093408 5 7 ack 40 ------- 0 5.0 0.0 36 87
r 2.097832 7 5 tcp 1040 ------- 0 0.0 5.0 40 71
h 2.097832 5 7 ack 40 ------- 0 5.0 0.0 40 91
- 2.101396 0 7 tcp 1040 ------- 0 0.0 5.0 45 78
+ 2.104236 5 7 ack 40 ------- 0 5.0 0.0 37 88
r 2.1093 7 5 tcp 1040 ------- 0 0.0 5.0 41 72
h 2.1093 5 7 ack 40 ------- 0 5.0 0.0 41 92
- 2.112056 0 7 tcp 1040 ------- 0 0.0 5.0 46 79
+ 2.115704 5 7 ack 40 ------- 0 5.0 0.0 38 89
r 2.11996 7 5 tcp 1040 ------- 0 0.0 5.0 42 73
h 2.11996 5 7 ack 40 ------- 0 5.0 0.0 42 93
- 2.123524 0 7 tcp 1040 ------- 0 0.0 5.0 47 80
+ 2.126364 5 7 ack 40 ------- 0 5.0 0.0 39 90
r 2.13062 7 5 tcp 1040 ------- 0 0.0 5.0 43 74
h 2.13062 5 7 ack 40 ------- 0 5.0 0.0 43 94
- 2.134184 0 7 tcp 1040 ------- 0 0.0 5.0 48 81
+ 2.137832 5 7 ack 40 ------- 0 5.0 0.0 40 91
r 2.14128 7 5 tcp 1040 ------- 0 0.0 5.0 44 76
h 2.14128 5 7 ack 40 ------- 0 5.0 0.0 44 95
- 2.144844 0 7 tcp 1040 ------- 0 0.0 5.0 49 82
+ 2.1493 5 7 ack 40 ------- 0 5.0 0.0 41 92
r 2.15194 7 5 tcp 1040 ------- 0 0.0 5.0 45 78
h 2.15194 5 7 ack 40 ------- 0 5.0 0.0 45 96
- 2.156312 0 7 tcp 1040 ------- 0 0.0 5.0 50 83
+ 2.15996 5 7 ack 40 ------- 0 5.0 0.0 42 93
r 2.163408 7 5 tcp 1040 ------- 0 0.0 5.0 46 79
h 2.163408 5 7 ack 40 ------- 0 5.0 0.0 46 97
+ 2.17062 5 7 ack 40 ------- 0 5.0 0.0 43 94
r 2.174068 7 5 tcp 1040 ------- 0 0.0 5.0 47 80
h 2.174068 5 7 ack 40 ------- 0 5.0 0.0 47 98
+ 2.18128 5 7 ack 40 ------- 0 5.0 0.0 44 95
r 2.184728 7 5 tcp 1040 ------- 0 0.0 5.0 48 81
h 2.184728 5 7 ack 40 ------- 0 5.0 0.0 48 99
+ 2.19194 5 7 ack 40 ------- 0 5.0 0.0 45 96
r 2.196196 7 5 tcp 1040 ------- 0 0.0 5.0 49 82
h 2.196196 5 7 ack 40 ------- 0 5.0 0.0 49 100
+ 2.203408 5 7 ack 40 ------- 0 5.0 0.0 46 97
r 2.206856 7 5 tcp 1040 ------- 0 0.0 5.0 50 83
h 2.206856 5 7 ack 40 ------- 0 5.0 0.0 50 101
+ 2.214068 5 7 ack 40 ------- 0 5.0 0.0 47 98
+ 2.224728 5 7 ack 40 ------- 0 5.0 0.0 48 99
+ 2.236196 5 7 ack 40 ------- 0 5.0 0.0 49 100
+ 2.246856 5 7 ack 40 ------- 0 5.0 0.0 50 101
h 2.308988 0 7 tcp 1040 ---A--- 0 0.0 5.0 31 102
+ 2.348988 0 7 tcp 1040 ---A--- 0 0.0 5.0 31 102
- 2.348988 0 7 tcp 1040 ---A--- 0 0.0 5.0 31 102
r 2.399532 7 5 tcp 1040 ---A--- 0 0.0 5.0 31 102
h 2.399532 5 7 ack 40 ------- 0 5.0 0.0 50 103
- 2.401768 5 7 ack 40 ------- 0 5.0 0.0 32 77
- 2.402528 5 7 ack 40 ------- 0 5.0 0.0 33 84
- 2.403288 5 7 ack 40 ------- 0 5.0 0.0 34 85
- 2.404048 5 7 ack 40 ------- 0 5.0 0.0 35 86
- 2.404808 5 7 ack 40 ------- 0 5.0 0.0 36 87
- 2.405568 5 7 ack 40 ------- 0 5.0 0.0 37 88
- 2.406328 5 7 ack 40 ------- 0 5.0 0.0 38 89
- 2.407088 5 7 ack 40 ------- 0 5.0 0.0 39 90
- 2.407848 5 7 ack 40 ------- 0 5.0 0.0 40 91
- 2.408608 5 7 ack 40 ------- 0 5.0 0.0 41 92
- 2.409368 5 7 ack 40 ------- 0 5.0 0.0 42 93
- 2.410128 5 7 ack 40 ------- 0 5.0 0.0 43 94
- 2.410888 5 7 ack 40 ------- 0 5.0 0.0 44 95
- 2.411648 5 7 ack 40 ------- 0 5.0 0.0 45 96
- 2.412408 5 7 ack 40 ------- 0 5.0 0.0 46 97
- 2.413168 5 7 ack 40 ------- 0 5.0 0.0 47 98
- 2.413928 5 7 ack 40 ------- 0 5.0 0.0 48 99
- 2.414688 5 7 ack 40 ------- 0 5.0 0.0 49 100
- 2.415448 5 7 ack 40 ------- 0 5.0 0.0 50 101
+ 2.439532 5 7 ack 40 ------- 0 5.0 0.0 50 103
- 2.439532 5 7 ack 40 ------- 0 5.0 0.0 50 103
r 2.441652 7 0 ack 40 ------- 0 5.0 0.0 31 75
h 2.441652 0 7 tcp 1040 ------- 0 0.0 5.0 32 104
h 2.441652 0 7 tcp 1040 ------- 0 0.0 5.0 33 105
r 2.442412 7 0 ack 40 ------- 0 5.0 0.0 32 77
h 2.442412 0 7 tcp 1040 ------- 0 0.0 5.0 34 106
h 2.442412 0 7 tcp 1040 ------- 0 0.0 5.0 35 107
r 2.443172 7 0 ack 40 ------- 0 5.0 0.0 33 84
h 2.443172 0 7 tcp 1040 ------- 0 0.0 5.0 36 108
h 2.443172 0 7 tcp 1040 ------- 0 0.0 5.0 37 109
r 2.443932 7 0 ack 40 ------- 0 5.0 0.0 34 85
h 2.443932 0 7 tcp 1040 ------- 0 0.0 5.0 38 110
h 2.443932 0 7 tcp 1040 ------- 0 0.0 5.0 39 111
r 2.444692 7 0 ack 40 ------- 0 5.0 0.0 35 86
h 2.444692 0 7 tcp 1040 ------- 0 0.0 5.0 40 112
h 2.444692 0 7 tcp 1040 ------- 0 0.0 5.0 41 113
r 2.445452 7 0 ack 40 ------- 0 5.0 0.0 36 87
h 2.445452 0 7 tcp 1040 ------- 0 0.0 5.0 42 114
h 2.445452 0 7 tcp 1040 ------- 0 0.0 5.0 43 115
r 2.446212 7 0 ack 40 ------- 0 5.0 0.0 37 88
h 2.446212 0 7 tcp 1040 ------- 0 0.0 5.0 44 116
h 2.446212 0 7 tcp 1040 ------- 0 0.0 5.0 45 117
r 2.446972 7 0 ack 40 ------- 0 5.0 0.0 38 89
h 2.446972 0 7 tcp 1040 ------- 0 0.0 5.0 46 118
h 2.446972 0 7 tcp 1040 ------- 0 0.0 5.0 47 119
r 2.447732 7 0 ack 40 ------- 0 5.0 0.0 39 90
h 2.447732 0 7 tcp 1040 ------- 0 0.0 5.0 48 120
h 2.447732 0 7 tcp 1040 ------- 0 0.0 5.0 49 121
r 2.448492 7 0 ack 40 ------- 0 5.0 0.0 40 91
h 2.448492 0 7 tcp 1040 ------- 0 0.0 5.0 50 122
r 2.449252 7 0 ack 40 ------- 0 5.0 0.0 41 92
h 2.449252 0 7 tcp 1040 ------- 0 0.0 5.0 51 123
r 2.450012 7 0 ack 40 ------- 0 5.0 0.0 42 93
h 2.450012 0 7 tcp 1040 ------- 0 0.0 5.0 52 124
r 2.450772 7 0 ack 40 ------- 0 5.0 0.0 43 94
h 2.450772 0 7 tcp 1040 ------- 0 0.0 5.0 53 125
r 2.451532 7 0 ack 40 ------- 0 5.0 0.0 44 95
h 2.451532 0 7 tcp 1040 ------- 0 0.0 5.0 54 126
r 2.452292 7 0 ack 40 ------- 0 5.0 0.0 45 96
h 2.452292 0 7 tcp 1040 ------- 0 0.0 5.0 55 127
r 2.453052 7 0 ack 40 ------- 0 5.0 0.0 46 97
h 2.453052 0 7 tcp 1040 ------- 0 0.0 5.0 56 128
r 2.453812 7 0 ack 40 ------- 0 5.0 0.0 47 98
h 2.453812 0 7 tcp 1040 ------- 0 0.0 5.0 57 129
r 2.454572 7 0 ack 40 ------- 0 5.0 0.0 48 99
h 2.454572 0 7 tcp 1040 ------- 0 0.0 5.0 58 130
r 2.455332 7 0 ack 40 ------- 0 5.0 0.0 49 100
h 2.455332 0 7 tcp 1040 ------- 0 0.0 5.0 59 131
r 2.456092 7 0 ack 40 ------- 0 5.0 0.0 50 101
h 2.456092 0 7 tcp 1040 ------- 0 0.0 5.0 60 132
h 2.456092 0 7 tcp 1040 ------- 0 0.0 5.0 61 133
r 2.480176 7 0 ack 40 ------- 0 5.0 0.0 50 103
h 2.480176 0 7 tcp 1040 ------- 0 0.0 5.0 62 134
+ 2.481652 0 7 tcp 1040 ------- 0 0.0 5.0 32 104
- 2.481652 0 7 tcp 1040 ------- 0 0.0 5.0 32 104
+ 2.481652 0 7 tcp 1040 ------- 0 0.0 5.0 33 105
+ 2.482412 0 7 tcp 1040 ------- 0 0.0 5.0 34 106
+ 2.482412 0 7 tcp 1040 ------- 0 0.0 5.0 35 107
+ 2.483172 0 7 tcp 1040 ------- 0 0.0 5.0 36 108
+ 2.483172 0 7 tcp 1040 ------- 0 0.0 5.0 37 109
+ 2.483932 0 7 tcp 1040 ------- 0 0.0 5.0 38 110
+ 2.483932 0 7 tcp 1040 ------- 0 0.0 5.0 39 111
+ 2.484692 0 7 tcp 1040 ------- 0 0.0 5.0 40 112
+ 2.484692 0 7 tcp 1040 ------- 0 0.0 5.0 41 113
+ 2.485452 0 7 tcp 1040 ------- 0 0.0 5.0 42 114
+ 2.485452 0 7 tcp 1040 ------- 0 0.0 5.0 43 115
+ 2.486212 0 7 tcp 1040 ------- 0 0.0 5.0 44 116
+ 2.486212 0 7 tcp 1040 ------- 0 0.0 5.0 45 117
+ 2.486972 0 7 tcp 1040 ------- 0 0.0 5.0 46 118
+ 2.486972 0 7 tcp 1040 ------- 0 0.0 5.0 47 119
+ 2.487732 0 7 tcp 1040 ------- 0 0.0 5.0 48 120
+ 2.487732 0 7 tcp 1040 ------- 0 0.0 5.0 49 121
+ 2.488492 0 7 tcp 1040 ------- 0 0.0 5.0 50 122
+ 2.489252 0 7 tcp 1040 ------- 0 0.0 5.0 51 123
+ 2.490012 0 7 tcp 1040 ------- 0 0.0 5.0 52 124
+ 2.490772 0 7 tcp 1040 ------- 0 0.0 5.0 53 125
+ 2.491532 0 7 tcp 1040 ------- 0 0.0 5.0 54 126
+ 2.492292 0 7 tcp 1040 ------- 0 0.0 5.0 55 127
- 2.492312 0 7 tcp 1040 ------- 0 0.0 5.0 33 105
+ 2.493052 0 7 tcp 1040 ------- 0 0.0 5.0 56 128
+ 2.493812 0 7 tcp 1040 ------- 0 0.0 5.0 57 129
+ 2.494572 0 7 tcp 1040 ------- 0 0.0 5.0 58 130
+ 2.495332 0 7 tcp 1040 ------- 0 0.0 5.0 59 131
+ 2.496092 0 7 tcp 1040 ------- 0 0.0 5.0 60 132
+ 2.496092 0 7 tcp 1040 ------- 0 0.0 5.0 61 133
- 2.502972 0 7 tcp 1040 ------- 0 0.0 5.0 34 106
- 2.513632 0 7 tcp 1040 ------- 0 0.0 5.0 35 107
+ 2.520176 0 7 tcp 1040 ------- 0 0.0 5.0 62 134
- 2.524292 0 7 tcp 1040 ------- 0 0.0 5.0 36 108
r 2.532196 7 5 tcp 1040 ------- 0 0.0 5.0 32 104
h 2.532196 5 7 ack 40 ------- 0 5.0 0.0 50 135
- 2.534952 0 7 tcp 1040 ------- 0 0.0 5.0 37 109
r 2.542856 7 5 tcp 1040 ------- 0 0.0 5.0 33 105
h 2.542856 5 7 ack 40 ------- 0 5.0 0.0 50 136
- 2.545612 0 7 tcp 1040 ------- 0 0.0 5.0 38 110
r 2.553516 7 5 tcp 1040 ------- 0 0.0 5.0 34 106
h 2.553516 5 7 ack 40 ------- 0 5.0 0.0 50 137
- 2.556272 0 7 tcp 1040 ------- 0 0.0 5.0 39 111
r 2.564176 7 5 tcp 1040 ------- 0 0.0 5.0 35 107
h 2.564176 5 7 ack 40 ------- 0 5.0 0.0 50 138
- 2.566932 0 7 tcp 1040 ------- 0 0.0 5.0 40 112
+ 2.572196 5 7 ack 40 ------- 0 5.0 0.0 50 135
- 2.572196 5 7 ack 40 ------- 0 5.0 0.0 50 135
r 2.574836 7 5 tcp 1040 ------- 0 0.0 5.0 36 108
h 2.574836 5 7 ack 40 ------- 0 5.0 0.0 50 139
- 2.577592 0 7 tcp 1040 ------- 0 0.0 5.0 41 113
+ 2.582856 5 7 ack 40 ------- 0 5.0 0.0 50 136
r 2.585496 7 5 tcp 1040 ------- 0 0.0 5.0 37 109
h 2.585496 5 7 ack 40 ------- 0 5.0 0.0 50 140
- 2.5905 0 7 tcp 1040 ------- 0 0.0 5.0 42 114
+ 2.593516 5 7 ack 40 ------- 0 5.0 0.0 50 137
r 2.596156 7 5 tcp 1040 ------- 0 0.0 5.0 38 110
h 2.596156 5 7 ack 40 ------- 0 5.0 0.0 50 141
- 2.602128 0 7 tcp 1040 ------- 0 0.0 5.0 43 115
+ 2.604176 5 7 ack 40 ------- 0 5.0 0.0 50 138
r 2.606816 7 5 tcp 1040 ------- 0 0.0 5.0 39 111
h 2.606816 5 7 ack 40 ------- 0 5.0 0.0 50 142
- 2.612956 0 7 tcp 1040 ------- 0 0.0 5.0 44 116
+ 2.614836 5 7 ack 40 ------- 0 5.0 0.0 50 139
r 2.617476 7 5 tcp 1040 ------- 0 0.0 5.0 40 112
h 2.617476 5 7 ack 40 ------- 0 5.0 0.0 50 143
- 2.623616 0 7 tcp 1040 ------- 0 0.0 5.0 45 117
+ 2.625496 5 7 ack 40 ------- 0 5.0 0.0 50 140
r 2.630384 7 5 tcp 1040 ------- 0 0.0 5.0 41 113
h 2.630384 5 7 ack 40 ------- 0 5.0 0.0 50 144
- 2.635084 0 7 tcp 1040 ------- 0 0.0 5.0 46 118
+ 2.636156 5 7 ack 40 ------- 0 5.0 0.0 50 141
r 2.642012 7 5 tcp 1040 ------- 0 0.0 5.0 42 114
h 2.642012 5 7 ack 40 ------- 0 5.0 0.0 50 145
- 2.645912 0 7 tcp 1040 ------- 0 0.0 5.0 47 119
+ 2.646816 5 7 ack 40 ------- 0 5.0 0.0 50 142
r 2.65284 7 5 tcp 1040 ------- 0 0.0 5.0 43 115
h 2.65284 5 7 ack 40 ------- 0 5.0 0.0 50 146
- 2.656572 0 7 tcp 1040 ------- 0 0.0 5.0 48 120
+ 2.657476 5 7 ack 40 ------- 0 5.0 0.0 50 143
r 2.6635 7 5 tcp 1040 ------- 0 0.0 5.0 44 116
h 2.6635 5 7 ack 40 ------- 0 5.0 0.0 50 147
- 2.667232 0 7 tcp 1040 ------- 0 0.0 5.0 49 121
+ 2.670384 5 7 ack 40 ------- 0 5.0 0.0 50 144
r 2.674968 7 5 tcp 1040 ------- 0 0.0 5.0 45 117
h 2.674968 5 7 ack 40 ------- 0 5.0 0.0 50 148
- 2.677892 0 7 tcp 1040 ------- 0 0.0 5.0 50 122
+ 2.682012 5 7 ack 40 ------- 0 5.0 0.0 50 145
r 2.685796 7 5 tcp 1040 ------- 0 0.0 5.0 46 118
h 2.685796 5 7 ack 40 ------- 0 5.0 0.0 50 149
- 2.688552 0 7 tcp 1040 ------- 0 0.0 5.0 51 123
+ 2.69284 5 7 ack 40 ------- 0 5.0 0.0 50 146
r 2.696456 7 5 tcp 1040 ------- 0 0.0 5.0 47 119
h 2.696456 5 7 ack 40 ------- 0 5.0 0.0 50 150
- 2.70002 0 7 tcp 1040 ------- 0 0.0 5.0 52 124
+ 2.7035 5 7 ack 40 ------- 0 5.0 0.0 50 147
r 2.707116 7 5 tcp 1040 ------- 0 0.0 5.0 48 120
h 2.707116 5 7 ack 40 ------- 0 5.0 0.0 50 151
- 2.71068 0 7 tcp 1040 ------- 0 0.0 5.0 53 125
+ 2.714968 5 7 ack 40 ------- 0 5.0 0.0 50 148
r 2.717776 7 5 tcp 1040 ------- 0 0.0 5.0 49 121
h 2.717776 5 7 ack 40 ------- 0 5.0 0.0 50 152
- 2.72134 0 7 tcp 1040 ------- 0 0.0 5.0 54 126
+ 2.725796 5 7 ack 40 ------- 0 5.0 0.0 50 149
r 2.728436 7 5 tcp 1040 ------- 0 0.0 5.0 50 122
h 2.728436 5 7 ack 40 ------- 0 5.0 0.0 50 153
- 2.732 0 7 tcp 1040 ------- 0 0.0 5.0 55 127
+ 2.736456 5 7 ack 40 ------- 0 5.0 0.0 50 150
r 2.739904 7 5 tcp 1040 ------- 0 0.0 5.0 51 123
h 2.739904 5 7 ack 40 ------- 0 5.0 0.0 51 154
- 2.74266 0 7 tcp 1040 ------- 0 0.0 5.0 56 128
+ 2.747116 5 7 ack 40 ------- 0 5.0 0.0 50 151
r 2.750564 7 5 tcp 1040 ------- 0 0.0 5.0 52 124
h 2.750564 5 7 ack 40 ------- 0 5.0 0.0 52 155
- 2.75332 0 7 tcp 1040 ------- 0 0.0 5.0 57 129
+ 2.757776 5 7 ack 40 ------- 0 5.0 0.0 50 152
r 2.761224 7 5 tcp 1040 ------- 0 0.0 5.0 53 125
h 2.761224 5 7 ack 40 ------- 0 5.0 0.0 53 156
- 2.76398 0 7 tcp 1040 ------- 0 0.0 5.0 58 130
+ 2.768436 5 7 ack 40 ------- 0 5.0 0.0 50 153
r 2.771884 7 5 tcp 1040 ------- 0 0.0 5.0 54 126
h 2.771884 5 7 ack 40 ------- 0 5.0 0.0 54 157
- 2.77464 0 7 tcp 1040 ------- 0 0.0 5.0 59 131
+ 2.779904 5 7 ack 40 ------- 0 5.0 0.0 51 154
r 2.782544 7 5 tcp 1040 ------- 0 0.0 5.0 55 127
h 2.782544 5 7 ack 40 ------- 0 5.0 0.0 55 158
- 2.786108 0 7 tcp 1040 ------- 0 0.0 5.0 60 132
+ 2.790564 5 7 ack 40 ------- 0 5.0 0.0 52 155
r 2.793204 7 5 tcp 1040 ------- 0 0.0 5.0 56 128
h 2.793204 5 7 ack 40 ------- 0 5.0 0.0 56 159
- 2.796768 0 7 tcp 1040 ------- 0 0.0 5.0 61 133
+ 2.801224 5 7 ack 40 ------- 0 5.0 0.0 53 156
r 2.803864 7 5 tcp 1040 ------- 0 0.0 5.0 57 129
h 2.803864 5 7 ack 40 ------- 0 5.0 0.0 57 160
- 2.807428 0 7 tcp 1040 ------- 0 0.0 5.0 62 134
+ 2.811884 5 7 ack 40 ------- 0 5.0 0.0 54 157
r 2.814524 7 5 tcp 1040 ------- 0 0.0 5.0 58 130
h 2.814524 5 7 ack 40 ------- 0 5.0 0.0 58 161
+ 2.822544 5 7 ack 40 ------- 0 5.0 0.0 55 158
r 2.825992 7 5 tcp 1040 ------- 0 0.0 5.0 59 131
h 2.825992 5 7 ack 40 ------- 0 5.0 0.0 59 162
+ 2.833204 5 7 ack 40 ------- 0 5.0 0.0 56 159
r 2.836652 7 5 tcp 1040 ------- 0 0.0 5.0 60 132
h 2.836652 5 7 ack 40 ------- 0 5.0 0.0 60 163
+ 2.843864 5 7 ack 40 ------- 0 5.0 0.0 57 160
r 2.847312 7 5 tcp 1040 ------- 0 0.0 5.0 61 133
h 2.847312 5 7 ack 40 ------- 0 5.0 0.0 61 164
+ 2.854524 5 7 ack 40 ------- 0 5.0 0.0 58 161
r 2.857972 7 5 tcp 1040 ------- 0 0.0 5.0 62 134
h 2.857972 5 7 ack 40 ------- 0 5.0 0.0 62 165
+ 2.865992 5 7 ack 40 ------- 0 5.0 0.0 59 162
+ 2.876652 5 7 ack 40 ------- 0 5.0 0.0 60 163
+ 2.887312 5 7 ack 40 ------- 0 5.0 0.0 61 164
+ 2.897972 5 7 ack 40 ------- 0 5.0 0.0 62 165
- 2.911884 5 7 ack 40 ------- 0 5.0 0.0 50 136
- 2.912644 5 7 ack 40 ------- 0 5.0 0.0 50 137
- 2.913404 5 7 ack 40 ------- 0 5.0 0.0 50 138
- 2.914164 5 7 ack 40 ------- 0 5.0 0.0 50 139
- 2.914924 5 7 ack 40 ------- 0 5.0 0.0 50 140
- 2.915684 5 7 ack 40 ------- 0 5.0 0.0 50 141
- 2.916444 5 7 ack 40 ------- 0 5.0 0.0 50 142
- 2.917204 5 7 ack 40 ------- 0 5.0 0.0 50 143
- 2.917964 5 7 ack 40 ------- 0 5.0 0.0 50 144
- 2.918724 5 7 ack 40 ------- 0 5.0 0.0 50 145
- 2.919484 5 7 ack 40 ------- 0 5.0 0.0 50 146
- 2.920244 5 7 ack 40 ------- 0 5.0 0.0 50 147
- 2.921004 5 7 ack 40 ------- 0 5.0 0.0 50 148
- 2.921764 5 7 ack 40 ------- 0 5.0 0.0 50 149
- 2.922524 5 7 ack 40 ------- 0 5.0 0.0 50 150
- 2.923284 5 7 ack 40 ------- 0 5.0 0.0 50 151
- 2.924044 5 7 ack 40 ------- 0 5.0 0.0 50 152
- 2.924804 5 7 ack 40 ------- 0 5.0 0.0 50 153
- 2.925564 5 7 ack 40 ------- 0 5.0 0.0 51 154
- 2.926324 5 7 ack 40 ------- 0 5.0 0.0 52 155
- 2.927084 5 7 ack 40 ------- 0 5.0 0.0 53 156
- 2.927844 5 7 ack 40 ------- 0 5.0 0.0 54 157
- 2.928604 5 7 ack 40 ------- 0 5.0 0.0 55 158
- 2.929364 5 7 ack 40 ------- 0 5.0 0.0 56 159
- 2.930124 5 7 ack 40 ------- 0 5.0 0.0 57 160
- 2.930884 5 7 ack 40 ------- 0 5.0 0.0 58 161
- 2.931644 5 7 ack 40 ------- 0 5.0 0.0 59 162
- 2.932404 5 7 ack 40 ------- 0 5.0 0.0 60 163
- 2.933164 5 7 ack 40 ------- 0 5.0 0.0 61 164
- 2.933924 5 7 ack 40 ------- 0 5.0 0.0 62 165
r 2.951768 7 0 ack 40 ------- 0 5.0 0.0 50 135
h 2.951768 0 7 tcp 1040 ------- 0 0.0 5.0 63 166
r 2.952528 7 0 ack 40 ------- 0 5.0 0.0 50 136
r 2.953288 7 0 ack 40 ------- 0 5.0 0.0 50 137