+ 0.5 1 2 cbr 500 ------- 0 1.0 3.1 0 0
- 0.5 1 2 cbr 500 ------- 0 1.0 3.1 0 0
+ 0.5 0 2 tcp 40 ------- 1 0.0 3.0 0 1
- 0.5 0 2 tcp 40 ------- 1 0.0 3.0 0 1
+ 0.505 1 2 cbr 500 ------- 0 1.0 3.1 1 2
- 0.505 1 2 cbr 500 ------- 0 1.0 3.1 1 2
+ 0.51 1 2 cbr 500 ------- 0 1.0 3.1 2 3
- 0.51 1 2 cbr 500 ------- 0 1.0 3.1 2 3
r 0.51032 0 2 tcp 40 ------- 1 0.0 3.0 0 1
+ 0.51032 2 3 tcp 40 ------- 1 0.0 3.0 0 1
- 0.51032 2 3 tcp 40 ------- 1 0.0 3.0 0 1
r 0.514 1 2 cbr 500 ------- 0 1.0 3.1 0 0
+ 0.514 2 3 cbr 500 ------- 0 1.0 3.1 0 0
- 0.514 2 3 cbr 500 ------- 0 1.0 3.1 0 0
+ 0.515 1 2 cbr 500 ------- 0 1.0 3.1 3 4
- 0.515 1 2 cbr 500 ------- 0 1.0 3.1 3 4
r 0.519 1 2 cbr 500 ------- 0 1.0 3.1 1 2
+ 0.519 2 3 cbr 500 ------- 0 1.0 3.1 1 2
- 0.519 2 3 cbr 500 ------- 0 1.0 3.1 1 2
+ 0.52 1 2 cbr 500 ------- 0 1.0 3.1 4 5
- 0.52 1 2 cbr 500 ------- 0 1.0 3.1 4 5
r 0.52064 2 3 tcp 40 ------- 1 0.0 3.0 0 1
+ 0.52064 3 2 ack 40 ------- 1 3.0 0.0 0 6
- 0.52064 3 2 ack 40 ------- 1 3.0 0.0 0 6
r 0.524 1 2 cbr 500 ------- 0 1.0 3.1 2 3
+ 0.524 2 3 cbr 500 ------- 0 1.0 3.1 2 3
- 0.524 2 3 cbr 500 ------- 0 1.0 3.1 2 3
+ 0.525 1 2 cbr 500 ------- 0 1.0 3.1 5 7
- 0.525 1 2 cbr 500 ------- 0 1.0 3.1 5 7
r 0.528 2 3 cbr 500 ------- 0 1.0 3.1 0 0
r 0.529 1 2 cbr 500 ------- 0 1.0 3.1 3 4
+ 0.529 2 3 cbr 500 ------- 0 1.0 3.1 3 4
- 0.529 2 3 cbr 500 ------- 0 1.0 3.1 3 4
+ 0.53 1 2 cbr 500 ------- 0 1.0 3.1 6 8
- 0.53 1 2 cbr 500 ------- 0 1.0 3.1 6 8
r 0.53096 3 2 ack 40 ------- 1 3.0 0.0 0 6
+ 0.53096 2 0 ack 40 ------- 1 3.0 0.0 0 6
- 0.53096 2 0 ack 40 ------- 1 3.0 0.0 0 6
r 0.533 2 3 cbr 500 ------- 0 1.0 3.1 1 2
r 0.534 1 2 cbr 500 ------- 0 1.0 3.1 4 5
+ 0.534 2 3 cbr 500 ------- 0 1.0 3.1 4 5
- 0.534 2 3 cbr 500 ------- 0 1.0 3.1 4 5
+ 0.535 1 2 cbr 500 ------- 0 1.0 3.1 7 9
- 0.535 1 2 cbr 500 ------- 0 1.0 3.1 7 9
r 0.538 2 3 cbr 500 ------- 0 1.0 3.1 2 3
r 0.539 1 2 cbr 500 ------- 0 1.0 3.1 5 7
+ 0.539 2 3 cbr 500 ------- 0 1.0 3.1 5 7
- 0.539 2 3 cbr 500 ------- 0 1.0 3.1 5 7
+ 0.54 1 2 cbr 500 ------- 0 1.0 3.1 8 10
- 0.54 1 2 cbr 500 ------- 0 1.0 3.1 8 10
r 0.54128 2 0 ack 40 ------- 1 3.0 0.0 0 6
+ 0.54128 0 2 tcp 1040 ------- 1 0.0 3.0 1 11
- 0.54128 0 2 tcp 1040 ------- 1 0.0 3.0 1 11
+ 0.54128 0 2 tcp 1040 ------- 1 0.0 3.0 2 12
r 0.543 2 3 cbr 500 ------- 0 1.0 3.1 3 4
r 0.544 1 2 cbr 500 ------- 0 1.0 3.1 6 8
+ 0.544 2 3 cbr 500 ------- 0 1.0 3.1 6 8
- 0.544 2 3 cbr 500 ------- 0 1.0 3.1 6 8
+ 0.545 1 2 cbr 500 ------- 0 1.0 3.1 9 13
- 0.545 1 2 cbr 500 ------- 0 1.0 3.1 9 13
r 0.548 2 3 cbr 500 ------- 0 1.0 3.1 4 5
r 0.549 1 2 cbr 500 ------- 0 1.0 3.1 7 9
+ 0.549 2 3 cbr 500 ------- 0 1.0 3.1 7 9
- 0.549 2 3 cbr 500 ------- 0 1.0 3.1 7 9
- 0.5496 0 2 tcp 1040 ------- 1 0.0 3.0 2 12
+ 0.55 1 2 cbr 500 ------- 0 1.0 3.1 10 14
- 0.55 1 2 cbr 500 ------- 0 1.0 3.1 10 14
r 0.553 2 3 cbr 500 ------- 0 1.0 3.1 5 7
r 0.554 1 2 cbr 500 ------- 0 1.0 3.1 8 10
+ 0.554 2 3 cbr 500 ------- 0 1.0 3.1 8 10
- 0.554 2 3 cbr 500 ------- 0 1.0 3.1 8 10
+ 0.555 1 2 cbr 500 ------- 0 1.0 3.1 11 15
- 0.555 1 2 cbr 500 ------- 0 1.0 3.1 11 15
r 0.558 2 3 cbr 500 ------- 0 1.0 3.1 6 8
r 0.559 1 2 cbr 500 ------- 0 1.0 3.1 9 13
+ 0.559 2 3 cbr 500 ------- 0 1.0 3.1 9 13
- 0.559 2 3 cbr 500 ------- 0 1.0 3.1 9 13
r 0.5596 0 2 tcp 1040 ------- 1 0.0 3.0 1 11
+ 0.5596 2 3 tcp 1040 ------- 1 0.0 3.0 1 11
+ 0.56 1 2 cbr 500 ------- 0 1.0 3.1 12 16
- 0.56 1 2 cbr 500 ------- 0 1.0 3.1 12 16
r 0.563 2 3 cbr 500 ------- 0 1.0 3.1 7 9
- 0.563 2 3 tcp 1040 ------- 1 0.0 3.0 1 11
r 0.564 1 2 cbr 500 ------- 0 1.0 3.1 10 14
+ 0.564 2 3 cbr 500 ------- 0 1.0 3.1 10 14
+ 0.565 1 2 cbr 500 ------- 0 1.0 3.1 13 17
- 0.565 1 2 cbr 500 ------- 0 1.0 3.1 13 17
r 0.56792 0 2 tcp 1040 ------- 1 0.0 3.0 2 12
+ 0.56792 2 3 tcp 1040 ------- 1 0.0 3.0 2 12
r 0.568 2 3 cbr 500 ------- 0 1.0 3.1 8 10
r 0.569 1 2 cbr 500 ------- 0 1.0 3.1 11 15
+ 0.569 2 3 cbr 500 ------- 0 1.0 3.1 11 15
+ 0.57 1 2 cbr 500 ------- 0 1.0 3.1 14 18
- 0.57 1 2 cbr 500 ------- 0 1.0 3.1 14 18
- 0.57132 2 3 cbr 500 ------- 0 1.0 3.1 10 14
r 0.573 2 3 cbr 500 ------- 0 1.0 3.1 9 13
r 0.574 1 2 cbr 500 ------- 0 1.0 3.1 12 16
+ 0.574 2 3 cbr 500 ------- 0 1.0 3.1 12 16
+ 0.575 1 2 cbr 500 ------- 0 1.0 3.1 15 19
- 0.575 1 2 cbr 500 ------- 0 1.0 3.1 15 19
- 0.57532 2 3 tcp 1040 ------- 1 0.0 3.0 2 12
r 0.579 1 2 cbr 500 ------- 0 1.0 3.1 13 17
+ 0.579 2 3 cbr 500 ------- 0 1.0 3.1 13 17
+ 0.58 1 2 cbr 500 ------- 0 1.0 3.1 16 20
- 0.58 1 2 cbr 500 ------- 0 1.0 3.1 16 20
r 0.58132 2 3 tcp 1040 ------- 1 0.0 3.0 1 11
+ 0.58132 3 2 ack 40 ------- 1 3.0 0.0 1 21
- 0.58132 3 2 ack 40 ------- 1 3.0 0.0 1 21
- 0.58364 2 3 cbr 500 ------- 0 1.0 3.1 11 15
r 0.584 1 2 cbr 500 ------- 0 1.0 3.1 14 18
+ 0.584 2 3 cbr 500 ------- 0 1.0 3.1 14 18
+ 0.585 1 2 cbr 500 ------- 0 1.0 3.1 17 22
- 0.585 1 2 cbr 500 ------- 0 1.0 3.1 17 22
r 0.58532 2 3 cbr 500 ------- 0 1.0 3.1 10 14
- 0.58764 2 3 cbr 500 ------- 0 1.0 3.1 12 16
r 0.589 1 2 cbr 500 ------- 0 1.0 3.1 15 19
+ 0.589 2 3 cbr 500 ------- 0 1.0 3.1 15 19
+ 0.59 1 2 cbr 500 ------- 0 1.0 3.1 18 23
- 0.59 1 2 cbr 500 ------- 0 1.0 3.1 18 23
r 0.59164 3 2 ack 40 ------- 1 3.0 0.0 1 21
+ 0.59164 2 0 ack 40 ------- 1 3.0 0.0 1 21
- 0.59164 2 0 ack 40 ------- 1 3.0 0.0 1 21
- 0.59164 2 3 cbr 500 ------- 0 1.0 3.1 13 17
r 0.59364 2 3 tcp 1040 ------- 1 0.0 3.0 2 12
+ 0.59364 3 2 ack 40 ------- 1 3.0 0.0 2 24
- 0.59364 3 2 ack 40 ------- 1 3.0 0.0 2 24
r 0.594 1 2 cbr 500 ------- 0 1.0 3.1 16 20
+ 0.594 2 3 cbr 500 ------- 0 1.0 3.1 16 20
+ 0.595 1 2 cbr 500 ------- 0 1.0 3.1 19 25
- 0.595 1 2 cbr 500 ------- 0 1.0 3.1 19 25
- 0.59564 2 3 cbr 500 ------- 0 1.0 3.1 14 18
r 0.59764 2 3 cbr 500 ------- 0 1.0 3.1 11 15
r 0.599 1 2 cbr 500 ------- 0 1.0 3.1 17 22
+ 0.599 2 3 cbr 500 ------- 0 1.0 3.1 17 22
- 0.59964 2 3 cbr 500 ------- 0 1.0 3.1 15 19
+ 0.6 1 2 cbr 500 ------- 0 1.0 3.1 20 26
- 0.6 1 2 cbr 500 ------- 0 1.0 3.1 20 26
r 0.60164 2 3 cbr 500 ------- 0 1.0 3.1 12 16
r 0.60196 2 0 ack 40 ------- 1 3.0 0.0 1 21
+ 0.60196 0 2 tcp 1040 ------- 1 0.0 3.0 3 27
- 0.60196 0 2 tcp 1040 ------- 1 0.0 3.0 3 27
+ 0.60196 0 2 tcp 1040 ------- 1 0.0 3.0 4 28
- 0.60364 2 3 cbr 500 ------- 0 1.0 3.1 16 20
r 0.60396 3 2 ack 40 ------- 1 3.0 0.0 2 24
+ 0.60396 2 0 ack 40 ------- 1 3.0 0.0 2 24
- 0.60396 2 0 ack 40 ------- 1 3.0 0.0 2 24
r 0.604 1 2 cbr 500 ------- 0 1.0 3.1 18 23
+ 0.604 2 3 cbr 500 ------- 0 1.0 3.1 18 23
+ 0.605 1 2 cbr 500 ------- 0 1.0 3.1 21 29
- 0.605 1 2 cbr 500 ------- 0 1.0 3.1 21 29
r 0.60564 2 3 cbr 500 ------- 0 1.0 3.1 13 17
- 0.60764 2 3 cbr 500 ------- 0 1.0 3.1 17 22
r 0.609 1 2 cbr 500 ------- 0 1.0 3.1 19 25
+ 0.609 2 3 cbr 500 ------- 0 1.0 3.1 19 25
r 0.60964 2 3 cbr 500 ------- 0 1.0 3.1 14 18
+ 0.61 1 2 cbr 500 ------- 0 1.0 3.1 22 30
- 0.61 1 2 cbr 500 ------- 0 1.0 3.1 22 30
- 0.61028 0 2 tcp 1040 ------- 1 0.0 3.0 4 28
- 0.61164 2 3 cbr 500 ------- 0 1.0 3.1 18 23
r 0.61364 2 3 cbr 500 ------- 0 1.0 3.1 15 19
r 0.614 1 2 cbr 500 ------- 0 1.0 3.1 20 26
+ 0.614 2 3 cbr 500 ------- 0 1.0 3.1 20 26
r 0.61428 2 0 ack 40 ------- 1 3.0 0.0 2 24
+ 0.61428 0 2 tcp 1040 ------- 1 0.0 3.0 5 31
+ 0.61428 0 2 tcp 1040 ------- 1 0.0 3.0 6 32
+ 0.615 1 2 cbr 500 ------- 0 1.0 3.1 23 33
- 0.615 1 2 cbr 500 ------- 0 1.0 3.1 23 33
- 0.61564 2 3 cbr 500 ------- 0 1.0 3.1 19 25
r 0.61764 2 3 cbr 500 ------- 0 1.0 3.1 16 20
- 0.6186 0 2 tcp 1040 ------- 1 0.0 3.0 5 31
r 0.619 1 2 cbr 500 ------- 0 1.0 3.1 21 29
+ 0.619 2 3 cbr 500 ------- 0 1.0 3.1 21 29
- 0.61964 2 3 cbr 500 ------- 0 1.0 3.1 20 26
+ 0.62 1 2 cbr 500 ------- 0 1.0 3.1 24 34
- 0.62 1 2 cbr 500 ------- 0 1.0 3.1 24 34
r 0.62028 0 2 tcp 1040 ------- 1 0.0 3.0 3 27
+ 0.62028 2 3 tcp 1040 ------- 1 0.0 3.0 3 27
r 0.62164 2 3 cbr 500 ------- 0 1.0 3.1 17 22
- 0.62364 2 3 cbr 500 ------- 0 1.0 3.1 21 29
r 0.624 1 2 cbr 500 ------- 0 1.0 3.1 22 30
+ 0.624 2 3 cbr 500 ------- 0 1.0 3.1 22 30
+ 0.625 1 2 cbr 500 ------- 0 1.0 3.1 25 35
- 0.625 1 2 cbr 500 ------- 0 1.0 3.1 25 35
r 0.62564 2 3 cbr 500 ------- 0 1.0 3.1 18 23
- 0.62692 0 2 tcp 1040 ------- 1 0.0 3.0 6 32
- 0.62764 2 3 tcp 1040 ------- 1 0.0 3.0 3 27
r 0.6286 0 2 tcp 1040 ------- 1 0.0 3.0 4 28
+ 0.6286 2 3 tcp 1040 ------- 1 0.0 3.0 4 28
r 0.629 1 2 cbr 500 ------- 0 1.0 3.1 23 33
+ 0.629 2 3 cbr 500 ------- 0 1.0 3.1 23 33
r 0.62964 2 3 cbr 500 ------- 0 1.0 3.1 19 25
+ 0.63 1 2 cbr 500 ------- 0 1.0 3.1 26 36
- 0.63 1 2 cbr 500 ------- 0 1.0 3.1 26 36
r 0.63364 2 3 cbr 500 ------- 0 1.0 3.1 20 26
r 0.634 1 2 cbr 500 ------- 0 1.0 3.1 24 34
+ 0.634 2 3 cbr 500 ------- 0 1.0 3.1 24 34
+ 0.635 1 2 cbr 500 ------- 0 1.0 3.1 27 37
- 0.635 1 2 cbr 500 ------- 0 1.0 3.1 27 37
- 0.63596 2 3 cbr 500 ------- 0 1.0 3.1 22 30
r 0.63692 0 2 tcp 1040 ------- 1 0.0 3.0 5 31
+ 0.63692 2 3 tcp 1040 ------- 1 0.0 3.0 5 31
r 0.63764 2 3 cbr 500 ------- 0 1.0 3.1 21 29
r 0.639 1 2 cbr 500 ------- 0 1.0 3.1 25 35
+ 0.639 2 3 cbr 500 ------- 0 1.0 3.1 25 35
- 0.63996 2 3 tcp 1040 ------- 1 0.0 3.0 4 28
+ 0.64 1 2 cbr 500 ------- 0 1.0 3.1 28 38
- 0.64 1 2 cbr 500 ------- 0 1.0 3.1 28 38
r 0.644 1 2 cbr 500 ------- 0 1.0 3.1 26 36
+ 0.644 2 3 cbr 500 ------- 0 1.0 3.1 26 36
+ 0.645 1 2 cbr 500 ------- 0 1.0 3.1 29 39
- 0.645 1 2 cbr 500 ------- 0 1.0 3.1 29 39
r 0.64524 0 2 tcp 1040 ------- 1 0.0 3.0 6 32
+ 0.64524 2 3 tcp 1040 ------- 1 0.0 3.0 6 32
r 0.64596 2 3 tcp 1040 ------- 1 0.0 3.0 3 27
+ 0.64596 3 2 ack 40 ------- 1 3.0 0.0 3 40
- 0.64596 3 2 ack 40 ------- 1 3.0 0.0 3 40
- 0.64828 2 3 cbr 500 ------- 0 1.0 3.1 23 33
r 0.649 1 2 cbr 500 ------- 0 1.0 3.1 27 37
+ 0.649 2 3 cbr 500 ------- 0 1.0 3.1 27 37
r 0.64996 2 3 cbr 500 ------- 0 1.0 3.1 22 30
+ 0.65 1 2 cbr 500 ------- 0 1.0 3.1 30 41
- 0.65 1 2 cbr 500 ------- 0 1.0 3.1 30 41
- 0.65228 2 3 cbr 500 ------- 0 1.0 3.1 24 34
r 0.654 1 2 cbr 500 ------- 0 1.0 3.1 28 38
+ 0.654 2 3 cbr 500 ------- 0 1.0 3.1 28 38
+ 0.655 1 2 cbr 500 ------- 0 1.0 3.1 31 42
- 0.655 1 2 cbr 500 ------- 0 1.0 3.1 31 42
r 0.65628 3 2 ack 40 ------- 1 3.0 0.0 3 40
+ 0.65628 2 0 ack 40 ------- 1 3.0 0.0 3 40
- 0.65628 2 0 ack 40 ------- 1 3.0 0.0 3 40
- 0.65628 2 3 tcp 1040 ------- 1 0.0 3.0 5 31
r 0.65828 2 3 tcp 1040 ------- 1 0.0 3.0 4 28
+ 0.65828 3 2 ack 40 ------- 1 3.0 0.0 4 43
- 0.65828 3 2 ack 40 ------- 1 3.0 0.0 4 43
r 0.659 1 2 cbr 500 ------- 0 1.0 3.1 29 39
+ 0.659 2 3 cbr 500 ------- 0 1.0 3.1 29 39
+ 0.66 1 2 cbr 500 ------- 0 1.0 3.1 32 44
- 0.66 1 2 cbr 500 ------- 0 1.0 3.1 32 44
r 0.66228 2 3 cbr 500 ------- 0 1.0 3.1 23 33
r 0.664 1 2 cbr 500 ------- 0 1.0 3.1 30 41
+ 0.664 2 3 cbr 500 ------- 0 1.0 3.1 30 41
- 0.6646 2 3 cbr 500 ------- 0 1.0 3.1 25 35
+ 0.665 1 2 cbr 500 ------- 0 1.0 3.1 33 45
- 0.665 1 2 cbr 500 ------- 0 1.0 3.1 33 45
r 0.66628 2 3 cbr 500 ------- 0 1.0 3.1 24 34
r 0.6666 2 0 ack 40 ------- 1 3.0 0.0 3 40
+ 0.6666 0 2 tcp 1040 ------- 1 0.0 3.0 7 46
- 0.6666 0 2 tcp 1040 ------- 1 0.0 3.0 7 46
+ 0.6666 0 2 tcp 1040 ------- 1 0.0 3.0 8 47
r 0.6686 3 2 ack 40 ------- 1 3.0 0.0 4 43
+ 0.6686 2 0 ack 40 ------- 1 3.0 0.0 4 43
- 0.6686 2 0 ack 40 ------- 1 3.0 0.0 4 43
- 0.6686 2 3 cbr 500 ------- 0 1.0 3.1 26 36
r 0.669 1 2 cbr 500 ------- 0 1.0 3.1 31 42
+ 0.669 2 3 cbr 500 ------- 0 1.0 3.1 31 42
+ 0.67 1 2 cbr 500 ------- 0 1.0 3.1 34 48
- 0.67 1 2 cbr 500 ------- 0 1.0 3.1 34 48
- 0.6726 2 3 tcp 1040 ------- 1 0.0 3.0 6 32
r 0.674 1 2 cbr 500 ------- 0 1.0 3.1 32 44
+ 0.674 2 3 cbr 500 ------- 0 1.0 3.1 32 44
r 0.6746 2 3 tcp 1040 ------- 1 0.0 3.0 5 31
+ 0.6746 3 2 ack 40 ------- 1 3.0 0.0 5 49
- 0.6746 3 2 ack 40 ------- 1 3.0 0.0 5 49
- 0.67492 0 2 tcp 1040 ------- 1 0.0 3.0 8 47
+ 0.675 1 2 cbr 500 ------- 0 1.0 3.1 35 50
- 0.675 1 2 cbr 500 ------- 0 1.0 3.1 35 50
r 0.6786 2 3 cbr 500 ------- 0 1.0 3.1 25 35
r 0.67892 2 0 ack 40 ------- 1 3.0 0.0 4 43
+ 0.67892 0 2 tcp 1040 ------- 1 0.0 3.0 9 51
+ 0.67892 0 2 tcp 1040 ------- 1 0.0 3.0 10 52
r 0.679 1 2 cbr 500 ------- 0 1.0 3.1 33 45
+ 0.679 2 3 cbr 500 ------- 0 1.0 3.1 33 45
+ 0.68 1 2 cbr 500 ------- 0 1.0 3.1 36 53
- 0.68 1 2 cbr 500 ------- 0 1.0 3.1 36 53
- 0.68092 2 3 cbr 500 ------- 0 1.0 3.1 27 37
r 0.6826 2 3 cbr 500 ------- 0 1.0 3.1 26 36
- 0.68324 0 2 tcp 1040 ------- 1 0.0 3.0 9 51
r 0.684 1 2 cbr 500 ------- 0 1.0 3.1 34 48
+ 0.684 2 3 cbr 500 ------- 0 1.0 3.1 34 48
r 0.68492 0 2 tcp 1040 ------- 1 0.0 3.0 7 46
+ 0.68492 2 3 tcp 1040 ------- 1 0.0 3.0 7 46
r 0.68492 3 2 ack 40 ------- 1 3.0 0.0 5 49
+ 0.68492 2 0 ack 40 ------- 1 3.0 0.0 5 49
- 0.68492 2 0 ack 40 ------- 1 3.0 0.0 5 49
- 0.68492 2 3 cbr 500 ------- 0 1.0 3.1 28 38
+ 0.685 1 2 cbr 500 ------- 0 1.0 3.1 37 54
- 0.685 1 2 cbr 500 ------- 0 1.0 3.1 37 54
- 0.68892 2 3 cbr 500 ------- 0 1.0 3.1 29 39
r 0.689 1 2 cbr 500 ------- 0 1.0 3.1 35 50
+ 0.689 2 3 cbr 500 ------- 0 1.0 3.1 35 50
+ 0.69 1 2 cbr 500 ------- 0 1.0 3.1 38 55
- 0.69 1 2 cbr 500 ------- 0 1.0 3.1 38 55
r 0.69092 2 3 tcp 1040 ------- 1 0.0 3.0 6 32
+ 0.69092 3 2 ack 40 ------- 1 3.0 0.0 6 56
- 0.69092 3 2 ack 40 ------- 1 3.0 0.0 6 56
- 0.69156 0 2 tcp 1040 ------- 1 0.0 3.0 10 52
- 0.69292 2 3 cbr 500 ------- 0 1.0 3.1 30 41
r 0.69324 0 2 tcp 1040 ------- 1 0.0 3.0 8 47
+ 0.69324 2 3 tcp 1040 ------- 1 0.0 3.0 8 47
r 0.694 1 2 cbr 500 ------- 0 1.0 3.1 36 53
+ 0.694 2 3 cbr 500 ------- 0 1.0 3.1 36 53
r 0.69492 2 3 cbr 500 ------- 0 1.0 3.1 27 37
+ 0.695 1 2 cbr 500 ------- 0 1.0 3.1 39 57
- 0.695 1 2 cbr 500 ------- 0 1.0 3.1 39 57
r 0.69524 2 0 ack 40 ------- 1 3.0 0.0 5 49
+ 0.69524 0 2 tcp 1040 ------- 1 0.0 3.0 11 58
+ 0.69524 0 2 tcp 1040 ------- 1 0.0 3.0 12 59
- 0.69692 2 3 cbr 500 ------- 0 1.0 3.1 31 42
r 0.69892 2 3 cbr 500 ------- 0 1.0 3.1 28 38
r 0.699 1 2 cbr 500 ------- 0 1.0 3.1 37 54
+ 0.699 2 3 cbr 500 ------- 0 1.0 3.1 37 54
- 0.69988 0 2 tcp 1040 ------- 1 0.0 3.0 11 58
+ 0.7 1 2 cbr 500 ------- 0 1.0 3.1 40 60
- 0.7 1 2 cbr 500 ------- 0 1.0 3.1 40 60
- 0.70092 2 3 cbr 500 ------- 0 1.0 3.1 32 44
r 0.70124 3 2 ack 40 ------- 1 3.0 0.0 6 56
+ 0.70124 2 0 ack 40 ------- 1 3.0 0.0 6 56
- 0.70124 2 0 ack 40 ------- 1 3.0 0.0 6 56
r 0.70156 0 2 tcp 1040 ------- 1 0.0 3.0 9 51
+ 0.70156 2 3 tcp 1040 ------- 1 0.0 3.0 9 51
r 0.70292 2 3 cbr 500 ------- 0 1.0 3.1 29 39
r 0.704 1 2 cbr 500 ------- 0 1.0 3.1 38 55
+ 0.704 2 3 cbr 500 ------- 0 1.0 3.1 38 55
- 0.70492 2 3 cbr 500 ------- 0 1.0 3.1 33 45
+ 0.705 1 2 cbr 500 ------- 0 1.0 3.1 41 61
- 0.705 1 2 cbr 500 ------- 0 1.0 3.1 41 61
r 0.70692 2 3 cbr 500 ------- 0 1.0 3.1 30 41
- 0.7082 0 2 tcp 1040 ------- 1 0.0 3.0 12 59
- 0.70892 2 3 cbr 500 ------- 0 1.0 3.1 34 48
r 0.709 1 2 cbr 500 ------- 0 1.0 3.1 39 57
+ 0.709 2 3 cbr 500 ------- 0 1.0 3.1 39 57
r 0.70988 0 2 tcp 1040 ------- 1 0.0 3.0 10 52
+ 0.70988 2 3 tcp 1040 ------- 1 0.0 3.0 10 52
+ 0.71 1 2 cbr 500 ------- 0 1.0 3.1 42 62
- 0.71 1 2 cbr 500 ------- 0 1.0 3.1 42 62
r 0.71092 2 3 cbr 500 ------- 0 1.0 3.1 31 42
r 0.71156 2 0 ack 40 ------- 1 3.0 0.0 6 56
+ 0.71156 0 2 tcp 1040 ------- 1 0.0 3.0 13 63
+ 0.71156 0 2 tcp 1040 ------- 1 0.0 3.0 14 64
- 0.71292 2 3 tcp 1040 ------- 1 0.0 3.0 7 46
r 0.714 1 2 cbr 500 ------- 0 1.0 3.1 40 60
+ 0.714 2 3 cbr 500 ------- 0 1.0 3.1 40 60
r 0.71492 2 3 cbr 500 ------- 0 1.0 3.1 32 44
+ 0.715 1 2 cbr 500 ------- 0 1.0 3.1 43 65
- 0.715 1 2 cbr 500 ------- 0 1.0 3.1 43 65
- 0.71652 0 2 tcp 1040 ------- 1 0.0 3.0 13 63
r 0.7182 0 2 tcp 1040 ------- 1 0.0 3.0 11 58
+ 0.7182 2 3 tcp 1040 ------- 1 0.0 3.0 11 58
r 0.71892 2 3 cbr 500 ------- 0 1.0 3.1 33 45
r 0.719 1 2 cbr 500 ------- 0 1.0 3.1 41 61
+ 0.719 2 3 cbr 500 ------- 0 1.0 3.1 41 61
+ 0.72 1 2 cbr 500 ------- 0 1.0 3.1 44 66
- 0.72 1 2 cbr 500 ------- 0 1.0 3.1 44 66
- 0.72124 2 3 cbr 500 ------- 0 1.0 3.1 35 50
r 0.72292 2 3 cbr 500 ------- 0 1.0 3.1 34 48
r 0.724 1 2 cbr 500 ------- 0 1.0 3.1 42 62
+ 0.724 2 3 cbr 500 ------- 0 1.0 3.1 42 62
- 0.72484 0 2 tcp 1040 ------- 1 0.0 3.0 14 64
+ 0.725 1 2 cbr 500 ------- 0 1.0 3.1 45 67
- 0.725 1 2 cbr 500 ------- 0 1.0 3.1 45 67
- 0.72524 2 3 tcp 1040 ------- 1 0.0 3.0 8 47
r 0.72652 0 2 tcp 1040 ------- 1 0.0 3.0 12 59
+ 0.72652 2 3 tcp 1040 ------- 1 0.0 3.0 12 59
r 0.729 1 2 cbr 500 ------- 0 1.0 3.1 43 65
+ 0.729 2 3 cbr 500 ------- 0 1.0 3.1 43 65
+ 0.73 1 2 cbr 500 ------- 0 1.0 3.1 46 68
- 0.73 1 2 cbr 500 ------- 0 1.0 3.1 46 68
r 0.73124 2 3 tcp 1040 ------- 1 0.0 3.0 7 46
+ 0.73124 3 2 ack 40 ------- 1 3.0 0.0 7 69
- 0.73124 3 2 ack 40 ------- 1 3.0 0.0 7 69
- 0.73356 2 3 cbr 500 ------- 0 1.0 3.1 36 53
r 0.734 1 2 cbr 500 ------- 0 1.0 3.1 44 66
+ 0.734 2 3 cbr 500 ------- 0 1.0 3.1 44 66
r 0.73484 0 2 tcp 1040 ------- 1 0.0 3.0 13 63
+ 0.73484 2 3 tcp 1040 ------- 1 0.0 3.0 13 63
+ 0.735 1 2 cbr 500 ------- 0 1.0 3.1 47 70
- 0.735 1 2 cbr 500 ------- 0 1.0 3.1 47 70
r 0.73524 2 3 cbr 500 ------- 0 1.0 3.1 35 50
- 0.73756 2 3 cbr 500 ------- 0 1.0 3.1 37 54
r 0.739 1 2 cbr 500 ------- 0 1.0 3.1 45 67
+ 0.739 2 3 cbr 500 ------- 0 1.0 3.1 45 67
+ 0.74 1 2 cbr 500 ------- 0 1.0 3.1 48 71
- 0.74 1 2 cbr 500 ------- 0 1.0 3.1 48 71
r 0.74156 3 2 ack 40 ------- 1 3.0 0.0 7 69
+ 0.74156 2 0 ack 40 ------- 1 3.0 0.0 7 69
- 0.74156 2 0 ack 40 ------- 1 3.0 0.0 7 69
- 0.74156 2 3 tcp 1040 ------- 1 0.0 3.0 9 51
r 0.74316 0 2 tcp 1040 ------- 1 0.0 3.0 14 64
+ 0.74316 2 3 tcp 1040 ------- 1 0.0 3.0 14 64
r 0.74356 2 3 tcp 1040 ------- 1 0.0 3.0 8 47
+ 0.74356 3 2 ack 40 ------- 1 3.0 0.0 8 72
- 0.74356 3 2 ack 40 ------- 1 3.0 0.0 8 72
r 0.744 1 2 cbr 500 ------- 0 1.0 3.1 46 68
+ 0.744 2 3 cbr 500 ------- 0 1.0 3.1 46 68
+ 0.745 1 2 cbr 500 ------- 0 1.0 3.1 49 73
- 0.745 1 2 cbr 500 ------- 0 1.0 3.1 49 73
r 0.74756 2 3 cbr 500 ------- 0 1.0 3.1 36 53
r 0.749 1 2 cbr 500 ------- 0 1.0 3.1 47 70
+ 0.749 2 3 cbr 500 ------- 0 1.0 3.1 47 70
- 0.74988 2 3 cbr 500 ------- 0 1.0 3.1 38 55
+ 0.75 1 2 cbr 500 ------- 0 1.0 3.1 50 74
- 0.75 1 2 cbr 500 ------- 0 1.0 3.1 50 74
r 0.75156 2 3 cbr 500 ------- 0 1.0 3.1 37 54
r 0.75188 2 0 ack 40 ------- 1 3.0 0.0 7 69
+ 0.75188 0 2 tcp 1040 ------- 1 0.0 3.0 15 75
- 0.75188 0 2 tcp 1040 ------- 1 0.0 3.0 15 75
+ 0.75188 0 2 tcp 1040 ------- 1 0.0 3.0 16 76
r 0.75388 3 2 ack 40 ------- 1 3.0 0.0 8 72
+ 0.75388 2 0 ack 40 ------- 1 3.0 0.0 8 72
- 0.75388 2 0 ack 40 ------- 1 3.0 0.0 8 72
- 0.75388 2 3 cbr 500 ------- 0 1.0 3.1 39 57
r 0.754 1 2 cbr 500 ------- 0 1.0 3.1 48 71
+ 0.754 2 3 cbr 500 ------- 0 1.0 3.1 48 71
+ 0.755 1 2 cbr 500 ------- 0 1.0 3.1 51 77
- 0.755 1 2 cbr 500 ------- 0 1.0 3.1 51 77
- 0.75788 2 3 tcp 1040 ------- 1 0.0 3.0 10 52
r 0.759 1 2 cbr 500 ------- 0 1.0 3.1 49 73
+ 0.759 2 3 cbr 500 ------- 0 1.0 3.1 49 73
r 0.75988 2 3 tcp 1040 ------- 1 0.0 3.0 9 51
+ 0.75988 3 2 ack 40 ------- 1 3.0 0.0 9 78
- 0.75988 3 2 ack 40 ------- 1 3.0 0.0 9 78
+ 0.76 1 2 cbr 500 ------- 0 1.0 3.1 52 79
- 0.76 1 2 cbr 500 ------- 0 1.0 3.1 52 79
- 0.7602 0 2 tcp 1040 ------- 1 0.0 3.0 16 76
r 0.76388 2 3 cbr 500 ------- 0 1.0 3.1 38 55
r 0.764 1 2 cbr 500 ------- 0 1.0 3.1 50 74
+ 0.764 2 3 cbr 500 ------- 0 1.0 3.1 50 74
r 0.7642 2 0 ack 40 ------- 1 3.0 0.0 8 72
+ 0.7642 0 2 tcp 1040 ------- 1 0.0 3.0 17 80
+ 0.7642 0 2 tcp 1040 ------- 1 0.0 3.0 18 81
+ 0.765 1 2 cbr 500 ------- 0 1.0 3.1 53 82
- 0.765 1 2 cbr 500 ------- 0 1.0 3.1 53 82
- 0.7662 2 3 cbr 500 ------- 0 1.0 3.1 40 60
r 0.76788 2 3 cbr 500 ------- 0 1.0 3.1 39 57
- 0.76852 0 2 tcp 1040 ------- 1 0.0 3.0 17 80
r 0.769 1 2 cbr 500 ------- 0 1.0 3.1 51 77
+ 0.769 2 3 cbr 500 ------- 0 1.0 3.1 51 77
+ 0.77 1 2 cbr 500 ------- 0 1.0 3.1 54 83
- 0.77 1 2 cbr 500 ------- 0 1.0 3.1 54 83
r 0.7702 0 2 tcp 1040 ------- 1 0.0 3.0 15 75
+ 0.7702 2 3 tcp 1040 ------- 1 0.0 3.0 15 75
r 0.7702 3 2 ack 40 ------- 1 3.0 0.0 9 78
+ 0.7702 2 0 ack 40 ------- 1 3.0 0.0 9 78
- 0.7702 2 0 ack 40 ------- 1 3.0 0.0 9 78
- 0.7702 2 3 tcp 1040 ------- 1 0.0 3.0 11 58
r 0.774 1 2 cbr 500 ------- 0 1.0 3.1 52 79
+ 0.774 2 3 cbr 500 ------- 0 1.0 3.1 52 79
+ 0.775 1 2 cbr 500 ------- 0 1.0 3.1 55 84
- 0.775 1 2 cbr 500 ------- 0 1.0 3.1 55 84
r 0.7762 2 3 tcp 1040 ------- 1 0.0 3.0 10 52
+ 0.7762 3 2 ack 40 ------- 1 3.0 0.0 10 85
- 0.7762 3 2 ack 40 ------- 1 3.0 0.0 10 85
- 0.77684 0 2 tcp 1040 ------- 1 0.0 3.0 18 81
r 0.77852 0 2 tcp 1040 ------- 1 0.0 3.0 16 76
+ 0.77852 2 3 tcp 1040 ------- 1 0.0 3.0 16 76
- 0.77852 2 3 cbr 500 ------- 0 1.0 3.1 41 61
r 0.779 1 2 cbr 500 ------- 0 1.0 3.1 53 82
+ 0.779 2 3 cbr 500 ------- 0 1.0 3.1 53 82
+ 0.78 1 2 cbr 500 ------- 0 1.0 3.1 56 86
- 0.78 1 2 cbr 500 ------- 0 1.0 3.1 56 86
r 0.7802 2 3 cbr 500 ------- 0 1.0 3.1 40 60
r 0.78052 2 0 ack 40 ------- 1 3.0 0.0 9 78
+ 0.78052 0 2 tcp 1040 ------- 1 0.0 3.0 19 87
+ 0.78052 0 2 tcp 1040 ------- 1 0.0 3.0 20 88
- 0.78252 2 3 cbr 500 ------- 0 1.0 3.1 42 62
r 0.784 1 2 cbr 500 ------- 0 1.0 3.1 54 83
+ 0.784 2 3 cbr 500 ------- 0 1.0 3.1 54 83
+ 0.785 1 2 cbr 500 ------- 0 1.0 3.1 57 89
- 0.785 1 2 cbr 500 ------- 0 1.0 3.1 57 89
- 0.78516 0 2 tcp 1040 ------- 1 0.0 3.0 19 87
r 0.78652 3 2 ack 40 ------- 1 3.0 0.0 10 85
+ 0.78652 2 0 ack 40 ------- 1 3.0 0.0 10 85
- 0.78652 2 0 ack 40 ------- 1 3.0 0.0 10 85
- 0.78652 2 3 tcp 1040 ------- 1 0.0 3.0 12 59
r 0.78684 0 2 tcp 1040 ------- 1 0.0 3.0 17 80
+ 0.78684 2 3 tcp 1040 ------- 1 0.0 3.0 17 80
r 0.78852 2 3 tcp 1040 ------- 1 0.0 3.0 11 58
+ 0.78852 3 2 ack 40 ------- 1 3.0 0.0 11 90
- 0.78852 3 2 ack 40 ------- 1 3.0 0.0 11 90
r 0.789 1 2 cbr 500 ------- 0 1.0 3.1 55 84
+ 0.789 2 3 cbr 500 ------- 0 1.0 3.1 55 84
+ 0.79 1 2 cbr 500 ------- 0 1.0 3.1 58 91
- 0.79 1 2 cbr 500 ------- 0 1.0 3.1 58 91
r 0.79252 2 3 cbr 500 ------- 0 1.0 3.1 41 61
- 0.79348 0 2 tcp 1040 ------- 1 0.0 3.0 20 88
r 0.794 1 2 cbr 500 ------- 0 1.0 3.1 56 86
+ 0.794 2 3 cbr 500 ------- 0 1.0 3.1 56 86
- 0.79484 2 3 cbr 500 ------- 0 1.0 3.1 43 65
+ 0.795 1 2 cbr 500 ------- 0 1.0 3.1 59 92
- 0.795 1 2 cbr 500 ------- 0 1.0 3.1 59 92
r 0.79516 0 2 tcp 1040 ------- 1 0.0 3.0 18 81
+ 0.79516 2 3 tcp 1040 ------- 1 0.0 3.0 18 81
r 0.79652 2 3 cbr 500 ------- 0 1.0 3.1 42 62
r 0.79684 2 0 ack 40 ------- 1 3.0 0.0 10 85
+ 0.79684 0 2 tcp 1040 ------- 1 0.0 3.0 21 93
+ 0.79684 0 2 tcp 1040 ------- 1 0.0 3.0 22 94
r 0.79884 3 2 ack 40 ------- 1 3.0 0.0 11 90
+ 0.79884 2 0 ack 40 ------- 1 3.0 0.0 11 90
- 0.79884 2 0 ack 40 ------- 1 3.0 0.0 11 90
- 0.79884 2 3 cbr 500 ------- 0 1.0 3.1 44 66
r 0.799 1 2 cbr 500 ------- 0 1.0 3.1 57 89
+ 0.799 2 3 cbr 500 ------- 0 1.0 3.1 57 89
+ 0.8 1 2 cbr 500 ------- 0 1.0 3.1 60 95
- 0.8 1 2 cbr 500 ------- 0 1.0 3.1 60 95
- 0.8018 0 2 tcp 1040 ------- 1 0.0 3.0 21 93
- 0.80284 2 3 tcp 1040 ------- 1 0.0 3.0 13 63
r 0.80348 0 2 tcp 1040 ------- 1 0.0 3.0 19 87
+ 0.80348 2 3 tcp 1040 ------- 1 0.0 3.0 19 87
r 0.804 1 2 cbr 500 ------- 0 1.0 3.1 58 91
+ 0.804 2 3 cbr 500 ------- 0 1.0 3.1 58 91
r 0.80484 2 3 tcp 1040 ------- 1 0.0 3.0 12 59
+ 0.80484 3 2 ack 40 ------- 1 3.0 0.0 12 96
- 0.80484 3 2 ack 40 ------- 1 3.0 0.0 12 96
+ 0.805 1 2 cbr 500 ------- 0 1.0 3.1 61 97
- 0.805 1 2 cbr 500 ------- 0 1.0 3.1 61 97
r 0.80884 2 3 cbr 500 ------- 0 1.0 3.1 43 65
r 0.809 1 2 cbr 500 ------- 0 1.0 3.1 59 92
+ 0.809 2 3 cbr 500 ------- 0 1.0 3.1 59 92
r 0.80916 2 0 ack 40 ------- 1 3.0 0.0 11 90
+ 0.80916 0 2 tcp 1040 ------- 1 0.0 3.0 23 98
+ 0.80916 0 2 tcp 1040 ------- 1 0.0 3.0 24 99
+ 0.81 1 2 cbr 500 ------- 0 1.0 3.1 62 100
- 0.81 1 2 cbr 500 ------- 0 1.0 3.1 62 100
- 0.81012 0 2 tcp 1040 ------- 1 0.0 3.0 22 94
- 0.81116 2 3 cbr 500 ------- 0 1.0 3.1 45 67
r 0.8118 0 2 tcp 1040 ------- 1 0.0 3.0 20 88
+ 0.8118 2 3 tcp 1040 ------- 1 0.0 3.0 20 88
r 0.81284 2 3 cbr 500 ------- 0 1.0 3.1 44 66
r 0.814 1 2 cbr 500 ------- 0 1.0 3.1 60 95
+ 0.814 2 3 cbr 500 ------- 0 1.0 3.1 60 95
+ 0.815 1 2 cbr 500 ------- 0 1.0 3.1 63 101
- 0.815 1 2 cbr 500 ------- 0 1.0 3.1 63 101
r 0.81516 3 2 ack 40 ------- 1 3.0 0.0 12 96
+ 0.81516 2 0 ack 40 ------- 1 3.0 0.0 12 96
- 0.81516 2 0 ack 40 ------- 1 3.0 0.0 12 96
- 0.81516 2 3 tcp 1040 ------- 1 0.0 3.0 14 64
- 0.81844 0 2 tcp 1040 ------- 1 0.0 3.0 23 98
r 0.819 1 2 cbr 500 ------- 0 1.0 3.1 61 97
+ 0.819 2 3 cbr 500 ------- 0 1.0 3.1 61 97
+ 0.82 1 2 cbr 500 ------- 0 1.0 3.1 64 102
- 0.82 1 2 cbr 500 ------- 0 1.0 3.1 64 102
r 0.82012 0 2 tcp 1040 ------- 1 0.0 3.0 21 93
+ 0.82012 2 3 tcp 1040 ------- 1 0.0 3.0 21 93
r 0.82116 2 3 tcp 1040 ------- 1 0.0 3.0 13 63
+ 0.82116 3 2 ack 40 ------- 1 3.0 0.0 13 103
- 0.82116 3 2 ack 40 ------- 1 3.0 0.0 13 103
- 0.82348 2 3 cbr 500 ------- 0 1.0 3.1 46 68
r 0.824 1 2 cbr 500 ------- 0 1.0 3.1 62 100
+ 0.824 2 3 cbr 500 ------- 0 1.0 3.1 62 100
+ 0.825 1 2 cbr 500 ------- 0 1.0 3.1 65 104
- 0.825 1 2 cbr 500 ------- 0 1.0 3.1 65 104
r 0.82516 2 3 cbr 500 ------- 0 1.0 3.1 45 67
r 0.82548 2 0 ack 40 ------- 1 3.0 0.0 12 96
+ 0.82548 0 2 tcp 1040 ------- 1 0.0 3.0 25 105
+ 0.82548 0 2 tcp 1040 ------- 1 0.0 3.0 26 106
- 0.82676 0 2 tcp 1040 ------- 1 0.0 3.0 24 99
- 0.82748 2 3 cbr 500 ------- 0 1.0 3.1 47 70
r 0.82844 0 2 tcp 1040 ------- 1 0.0 3.0 22 94
+ 0.82844 2 3 tcp 1040 ------- 1 0.0 3.0 22 94
r 0.829 1 2 cbr 500 ------- 0 1.0 3.1 63 101
+ 0.829 2 3 cbr 500 ------- 0 1.0 3.1 63 101
+ 0.83 1 2 cbr 500 ------- 0 1.0 3.1 66 107
- 0.83 1 2 cbr 500 ------- 0 1.0 3.1 66 107
r 0.83148 3 2 ack 40 ------- 1 3.0 0.0 13 103
+ 0.83148 2 0 ack 40 ------- 1 3.0 0.0 13 103
- 0.83148 2 0 ack 40 ------- 1 3.0 0.0 13 103
- 0.83148 2 3 cbr 500 ------- 0 1.0 3.1 48 71
r 0.83348 2 3 tcp 1040 ------- 1 0.0 3.0 14 64
+ 0.83348 3 2 ack 40 ------- 1 3.0 0.0 14 108
- 0.83348 3 2 ack 40 ------- 1 3.0 0.0 14 108
r 0.834 1 2 cbr 500 ------- 0 1.0 3.1 64 102
+ 0.834 2 3 cbr 500 ------- 0 1.0 3.1 64 102
+ 0.835 1 2 cbr 500 ------- 0 1.0 3.1 67 109
- 0.835 1 2 cbr 500 ------- 0 1.0 3.1 67 109
- 0.83508 0 2 tcp 1040 ------- 1 0.0 3.0 25 105
- 0.83548 2 3 cbr 500 ------- 0 1.0 3.1 49 73
r 0.83676 0 2 tcp 1040 ------- 1 0.0 3.0 23 98
+ 0.83676 2 3 tcp 1040 ------- 1 0.0 3.0 23 98
r 0.83748 2 3 cbr 500 ------- 0 1.0 3.1 46 68
r 0.839 1 2 cbr 500 ------- 0 1.0 3.1 65 104
+ 0.839 2 3 cbr 500 ------- 0 1.0 3.1 65 104
- 0.83948 2 3 cbr 500 ------- 0 1.0 3.1 50 74
+ 0.84 1 2 cbr 500 ------- 0 1.0 3.1 68 110
- 0.84 1 2 cbr 500 ------- 0 1.0 3.1 68 110
r 0.84148 2 3 cbr 500 ------- 0 1.0 3.1 47 70
r 0.8418 2 0 ack 40 ------- 1 3.0 0.0 13 103
+ 0.8418 0 2 tcp 1040 ------- 1 0.0 3.0 27 111
+ 0.8418 0 2 tcp 1040 ------- 1 0.0 3.0 28 112
- 0.8434 0 2 tcp 1040 ------- 1 0.0 3.0 26 106
- 0.84348 2 3 cbr 500 ------- 0 1.0 3.1 51 77
r 0.8438 3 2 ack 40 ------- 1 3.0 0.0 14 108
+ 0.8438 2 0 ack 40 ------- 1 3.0 0.0 14 108
- 0.8438 2 0 ack 40 ------- 1 3.0 0.0 14 108
r 0.844 1 2 cbr 500 ------- 0 1.0 3.1 66 107
+ 0.844 2 3 cbr 500 ------- 0 1.0 3.1 66 107
+ 0.845 1 2 cbr 500 ------- 0 1.0 3.1 69 113
- 0.845 1 2 cbr 500 ------- 0 1.0 3.1 69 113
r 0.84508 0 2 tcp 1040 ------- 1 0.0 3.0 24 99
+ 0.84508 2 3 tcp 1040 ------- 1 0.0 3.0 24 99
r 0.84548 2 3 cbr 500 ------- 0 1.0 3.1 48 71
- 0.84748 2 3 tcp 1040 ------- 1 0.0 3.0 15 75
r 0.849 1 2 cbr 500 ------- 0 1.0 3.1 67 109
+ 0.849 2 3 cbr 500 ------- 0 1.0 3.1 67 109
r 0.84948 2 3 cbr 500 ------- 0 1.0 3.1 49 73
+ 0.85 1 2 cbr 500 ------- 0 1.0 3.1 70 114
- 0.85 1 2 cbr 500 ------- 0 1.0 3.1 70 114
- 0.85172 0 2 tcp 1040 ------- 1 0.0 3.0 27 111
r 0.8534 0 2 tcp 1040 ------- 1 0.0 3.0 25 105
+ 0.8534 2 3 tcp 1040 ------- 1 0.0 3.0 25 105
r 0.85348 2 3 cbr 500 ------- 0 1.0 3.1 50 74
r 0.854 1 2 cbr 500 ------- 0 1.0 3.1 68 110
+ 0.854 2 3 cbr 500 ------- 0 1.0 3.1 68 110
r 0.85412 2 0 ack 40 ------- 1 3.0 0.0 14 108
+ 0.85412 0 2 tcp 1040 ------- 1 0.0 3.0 29 115
+ 0.85412 0 2 tcp 1040 ------- 1 0.0 3.0 30 116
+ 0.855 1 2 cbr 500 ------- 0 1.0 3.1 71 117
- 0.855 1 2 cbr 500 ------- 0 1.0 3.1 71 117
- 0.8558 2 3 cbr 500 ------- 0 1.0 3.1 52 79
r 0.85748 2 3 cbr 500 ------- 0 1.0 3.1 51 77
r 0.859 1 2 cbr 500 ------- 0 1.0 3.1 69 113
+ 0.859 2 3 cbr 500 ------- 0 1.0 3.1 69 113
- 0.8598 2 3 tcp 1040 ------- 1 0.0 3.0 16 76
+ 0.86 1 2 cbr 500 ------- 0 1.0 3.1 72 118
- 0.86 1 2 cbr 500 ------- 0 1.0 3.1 72 118
- 0.86004 0 2 tcp 1040 ------- 1 0.0 3.0 28 112
r 0.86172 0 2 tcp 1040 ------- 1 0.0 3.0 26 106
+ 0.86172 2 3 tcp 1040 ------- 1 0.0 3.0 26 106
r 0.864 1 2 cbr 500 ------- 0 1.0 3.1 70 114
+ 0.864 2 3 cbr 500 ------- 0 1.0 3.1 70 114
+ 0.865 1 2 cbr 500 ------- 0 1.0 3.1 73 119
- 0.865 1 2 cbr 500 ------- 0 1.0 3.1 73 119
r 0.8658 2 3 tcp 1040 ------- 1 0.0 3.0 15 75
+ 0.8658 3 2 ack 40 ------- 1 3.0 0.0 15 120
- 0.8658 3 2 ack 40 ------- 1 3.0 0.0 15 120
- 0.86812 2 3 cbr 500 ------- 0 1.0 3.1 53 82
- 0.86836 0 2 tcp 1040 ------- 1 0.0 3.0 29 115
r 0.869 1 2 cbr 500 ------- 0 1.0 3.1 71 117
+ 0.869 2 3 cbr 500 ------- 0 1.0 3.1 71 117
r 0.8698 2 3 cbr 500 ------- 0 1.0 3.1 52 79
+ 0.87 1 2 cbr 500 ------- 0 1.0 3.1 74 121
- 0.87 1 2 cbr 500 ------- 0 1.0 3.1 74 121
r 0.87004 0 2 tcp 1040 ------- 1 0.0 3.0 27 111
+ 0.87004 2 3 tcp 1040 ------- 1 0.0 3.0 27 111
- 0.87212 2 3 cbr 500 ------- 0 1.0 3.1 54 83
r 0.874 1 2 cbr 500 ------- 0 1.0 3.1 72 118
+ 0.874 2 3 cbr 500 ------- 0 1.0 3.1 72 118
+ 0.875 1 2 cbr 500 ------- 0 1.0 3.1 75 122
- 0.875 1 2 cbr 500 ------- 0 1.0 3.1 75 122
r 0.87612 3 2 ack 40 ------- 1 3.0 0.0 15 120
+ 0.87612 2 0 ack 40 ------- 1 3.0 0.0 15 120
- 0.87612 2 0 ack 40 ------- 1 3.0 0.0 15 120
- 0.87612 2 3 tcp 1040 ------- 1 0.0 3.0 17 80
- 0.87668 0 2 tcp 1040 ------- 1 0.0 3.0 30 116
r 0.87812 2 3 tcp 1040 ------- 1 0.0 3.0 16 76
+ 0.87812 3 2 ack 40 ------- 1 3.0 0.0 16 123
- 0.87812 3 2 ack 40 ------- 1 3.0 0.0 16 123
r 0.87836 0 2 tcp 1040 ------- 1 0.0 3.0 28 112
+ 0.87836 2 3 tcp 1040 ------- 1 0.0 3.0 28 112
r 0.879 1 2 cbr 500 ------- 0 1.0 3.1 73 119
+ 0.879 2 3 cbr 500 ------- 0 1.0 3.1 73 119
+ 0.88 1 2 cbr 500 ------- 0 1.0 3.1 76 124
- 0.88 1 2 cbr 500 ------- 0 1.0 3.1 76 124
r 0.88212 2 3 cbr 500 ------- 0 1.0 3.1 53 82
r 0.884 1 2 cbr 500 ------- 0 1.0 3.1 74 121
+ 0.884 2 3 cbr 500 ------- 0 1.0 3.1 74 121
- 0.88444 2 3 cbr 500 ------- 0 1.0 3.1 55 84
+ 0.885 1 2 cbr 500 ------- 0 1.0 3.1 77 125
- 0.885 1 2 cbr 500 ------- 0 1.0 3.1 77 125
r 0.88612 2 3 cbr 500 ------- 0 1.0 3.1 54 83
r 0.88644 2 0 ack 40 ------- 1 3.0 0.0 15 120
+ 0.88644 0 2 tcp 1040 ------- 1 0.0 3.0 31 126