V -t * -v 1.0a5 -a 0
A -t * -n 1 -p 0 -o 0x7fffffff -c 30 -a 1
A -t * -h 1 -m 1073741823 -s 0
n -t * -a 4 -s 4 -S UP -v circle -c black -i black
n -t * -a 0 -s 0 -S UP -v circle -c black -i black
n -t * -a 5 -s 5 -S UP -v circle -c black -i black
n -t * -a 1 -s 1 -S UP -v circle -c black -i black
n -t * -a 6 -s 6 -S UP -v circle -c black -i black
n -t * -a 2 -s 2 -S UP -v circle -c black -i black
n -t * -a 3 -s 3 -S UP -v circle -c black -i black
X -t * -n 7 -r 0.8Mb -D 40ms -o left
L -t * -s 7 -d 0 -o up
L -t * -s 7 -d 1 -o down
L -t * -s 7 -d 2 -o up
L -t * -s 7 -d 3 -o down
L -t * -s 7 -d 4 -o up
L -t * -s 7 -d 5 -o down
L -t * -s 7 -d 6 -o up
h -t 1 -s 0 -d 7 -p tcp -e 40 -c 0 -i 0 -a 0 -x {0.0 5.0 0 ------- null}
+ -t 1.04 -s 0 -d 7 -p tcp -e 40 -c 0 -i 0 -a 0 -x {0.0 5.0 0 ------- null}
- -t 1.04 -s 0 -d 7 -p tcp -e 40 -c 0 -i 0 -a 0 -x {0.0 5.0 0 ------- null}
h -t 1.04 -s 0 -d 7 -p tcp -e 40 -c 0 -i 0 -a 0 -x {0.0 5.0 -1 ------- null}
r -t 1.080644 -s 7 -d 5 -p tcp -e 40 -c 0 -i 0 -a 0 -x {0.0 5.0 0 ------- null}
h -t 1.080644 -s 5 -d 7 -p ack -e 40 -c 0 -i 1 -a 0 -x {5.0 0.0 0 ------- null}
+ -t 1.120644 -s 5 -d 7 -p ack -e 40 -c 0 -i 1 -a 0 -x {5.0 0.0 0 ------- null}
- -t 1.120644 -s 5 -d 7 -p ack -e 40 -c 0 -i 1 -a 0 -x {5.0 0.0 0 ------- null}
h -t 1.120644 -s 5 -d 7 -p ack -e 40 -c 0 -i 1 -a 0 -x {5.0 0.0 -1 ------- null}
r -t 1.161288 -s 7 -d 0 -p ack -e 40 -c 0 -i 1 -a 0 -x {5.0 0.0 0 ------- null}
h -t 1.161288 -s 0 -d 7 -p tcp -e 1040 -c 0 -i 2 -a 0 -x {0.0 5.0 1 ------- null}
h -t 1.161288 -s 0 -d 7 -p tcp -e 1040 -c 0 -i 3 -a 0 -x {0.0 5.0 2 ------- null}
+ -t 1.201288 -s 0 -d 7 -p tcp -e 1040 -c 0 -i 2 -a 0 -x {0.0 5.0 1 ------- null}
- -t 1.201288 -s 0 -d 7 -p tcp -e 1040 -c 0 -i 2 -a 0 -x {0.0 5.0 1 ------- null}
h -t 1.201288 -s 0 -d 7 -p tcp -e 1040 -c 0 -i 2 -a 0 -x {0.0 5.0 -1 ------- null}
+ -t 1.201288 -s 0 -d 7 -p tcp -e 1040 -c 0 -i 3 -a 0 -x {0.0 5.0 2 ------- null}
- -t 1.211948 -s 0 -d 7 -p tcp -e 1040 -c 0 -i 3 -a 0 -x {0.0 5.0 2 ------- null}
h -t 1.211948 -s 0 -d 7 -p tcp -e 1040 -c 0 -i 3 -a 0 -x {0.0 5.0 -1 ------- null}
r -t 1.251832 -s 7 -d 5 -p tcp -e 1040 -c 0 -i 2 -a 0 -x {0.0 5.0 1 ------- null}
h -t 1.251832 -s 5 -d 7 -p ack -e 40 -c 0 -i 4 -a 0 -x {5.0 0.0 1 ------- null}
r -t 1.262492 -s 7 -d 5 -p tcp -e 1040 -c 0 -i 3 -a 0 -x {0.0 5.0 2 ------- null}
h -t 1.262492 -s 5 -d 7 -p ack -e 40 -c 0 -i 5 -a 0 -x {5.0 0.0 2 ------- null}
+ -t 1.291832 -s 5 -d 7 -p ack -e 40 -c 0 -i 4 -a 0 -x {5.0 0.0 1 ------- null}
- -t 1.291832 -s 5 -d 7 -p ack -e 40 -c 0 -i 4 -a 0 -x {5.0 0.0 1 ------- null}
h -t 1.291832 -s 5 -d 7 -p ack -e 40 -c 0 -i 4 -a 0 -x {5.0 0.0 -1 ------- null}
+ -t 1.302492 -s 5 -d 7 -p ack -e 40 -c 0 -i 5 -a 0 -x {5.0 0.0 2 ------- null}
- -t 1.302492 -s 5 -d 7 -p ack -e 40 -c 0 -i 5 -a 0 -x {5.0 0.0 2 ------- null}
h -t 1.302492 -s 5 -d 7 -p ack -e 40 -c 0 -i 5 -a 0 -x {5.0 0.0 -1 ------- null}
r -t 1.332476 -s 7 -d 0 -p ack -e 40 -c 0 -i 4 -a 0 -x {5.0 0.0 1 ------- null}
h -t 1.332476 -s 0 -d 7 -p tcp -e 1040 -c 0 -i 6 -a 0 -x {0.0 5.0 3 ------- null}
h -t 1.332476 -s 0 -d 7 -p tcp -e 1040 -c 0 -i 7 -a 0 -x {0.0 5.0 4 ------- null}
r -t 1.343136 -s 7 -d 0 -p ack -e 40 -c 0 -i 5 -a 0 -x {5.0 0.0 2 ------- null}
h -t 1.343136 -s 0 -d 7 -p tcp -e 1040 -c 0 -i 8 -a 0 -x {0.0 5.0 5 ------- null}
h -t 1.343136 -s 0 -d 7 -p tcp -e 1040 -c 0 -i 9 -a 0 -x {0.0 5.0 6 ------- null}
+ -t 1.372476 -s 0 -d 7 -p tcp -e 1040 -c 0 -i 6 -a 0 -x {0.0 5.0 3 ------- null}
- -t 1.372476 -s 0 -d 7 -p tcp -e 1040 -c 0 -i 6 -a 0 -x {0.0 5.0 3 ------- null}
h -t 1.372476 -s 0 -d 7 -p tcp -e 1040 -c 0 -i 6 -a 0 -x {0.0 5.0 -1 ------- null}
+ -t 1.372476 -s 0 -d 7 -p tcp -e 1040 -c 0 -i 7 -a 0 -x {0.0 5.0 4 ------- null}
+ -t 1.383136 -s 0 -d 7 -p tcp -e 1040 -c 0 -i 8 -a 0 -x {0.0 5.0 5 ------- null}
+ -t 1.383136 -s 0 -d 7 -p tcp -e 1040 -c 0 -i 9 -a 0 -x {0.0 5.0 6 ------- null}
- -t 1.383136 -s 0 -d 7 -p tcp -e 1040 -c 0 -i 7 -a 0 -x {0.0 5.0 4 ------- null}
h -t 1.383136 -s 0 -d 7 -p tcp -e 1040 -c 0 -i 7 -a 0 -x {0.0 5.0 -1 ------- null}
- -t 1.393796 -s 0 -d 7 -p tcp -e 1040 -c 0 -i 8 -a 0 -x {0.0 5.0 5 ------- null}
h -t 1.393796 -s 0 -d 7 -p tcp -e 1040 -c 0 -i 8 -a 0 -x {0.0 5.0 -1 ------- null}
- -t 1.404456 -s 0 -d 7 -p tcp -e 1040 -c 0 -i 9 -a 0 -x {0.0 5.0 6 ------- null}
h -t 1.404456 -s 0 -d 7 -p tcp -e 1040 -c 0 -i 9 -a 0 -x {0.0 5.0 -1 ------- null}
r -t 1.42302 -s 7 -d 5 -p tcp -e 1040 -c 0 -i 6 -a 0 -x {0.0 5.0 3 ------- null}
h -t 1.42302 -s 5 -d 7 -p ack -e 40 -c 0 -i 10 -a 0 -x {5.0 0.0 3 ------- null}
r -t 1.43368 -s 7 -d 5 -p tcp -e 1040 -c 0 -i 7 -a 0 -x {0.0 5.0 4 ------- null}
h -t 1.43368 -s 5 -d 7 -p ack -e 40 -c 0 -i 11 -a 0 -x {5.0 0.0 4 ------- null}
r -t 1.44434 -s 7 -d 5 -p tcp -e 1040 -c 0 -i 8 -a 0 -x {0.0 5.0 5 ------- null}
h -t 1.44434 -s 5 -d 7 -p ack -e 40 -c 0 -i 12 -a 0 -x {5.0 0.0 5 ------- null}
r -t 1.455 -s 7 -d 5 -p tcp -e 1040 -c 0 -i 9 -a 0 -x {0.0 5.0 6 ------- null}
h -t 1.455 -s 5 -d 7 -p ack -e 40 -c 0 -i 13 -a 0 -x {5.0 0.0 6 ------- null}
+ -t 1.46302 -s 5 -d 7 -p ack -e 40 -c 0 -i 10 -a 0 -x {5.0 0.0 3 ------- null}
- -t 1.46302 -s 5 -d 7 -p ack -e 40 -c 0 -i 10 -a 0 -x {5.0 0.0 3 ------- null}
h -t 1.46302 -s 5 -d 7 -p ack -e 40 -c 0 -i 10 -a 0 -x {5.0 0.0 -1 ------- null}
+ -t 1.47368 -s 5 -d 7 -p ack -e 40 -c 0 -i 11 -a 0 -x {5.0 0.0 4 ------- null}
- -t 1.47368 -s 5 -d 7 -p ack -e 40 -c 0 -i 11 -a 0 -x {5.0 0.0 4 ------- null}
h -t 1.47368 -s 5 -d 7 -p ack -e 40 -c 0 -i 11 -a 0 -x {5.0 0.0 -1 ------- null}
+ -t 1.48434 -s 5 -d 7 -p ack -e 40 -c 0 -i 12 -a 0 -x {5.0 0.0 5 ------- null}
- -t 1.48434 -s 5 -d 7 -p ack -e 40 -c 0 -i 12 -a 0 -x {5.0 0.0 5 ------- null}
h -t 1.48434 -s 5 -d 7 -p ack -e 40 -c 0 -i 12 -a 0 -x {5.0 0.0 -1 ------- null}
+ -t 1.495 -s 5 -d 7 -p ack -e 40 -c 0 -i 13 -a 0 -x {5.0 0.0 6 ------- null}
- -t 1.495 -s 5 -d 7 -p ack -e 40 -c 0 -i 13 -a 0 -x {5.0 0.0 6 ------- null}
h -t 1.495 -s 5 -d 7 -p ack -e 40 -c 0 -i 13 -a 0 -x {5.0 0.0 -1 ------- null}
r -t 1.503664 -s 7 -d 0 -p ack -e 40 -c 0 -i 10 -a 0 -x {5.0 0.0 3 ------- null}
h -t 1.503664 -s 0 -d 7 -p tcp -e 1040 -c 0 -i 14 -a 0 -x {0.0 5.0 7 ------- null}
h -t 1.503664 -s 0 -d 7 -p tcp -e 1040 -c 0 -i 15 -a 0 -x {0.0 5.0 8 ------- null}
r -t 1.514324 -s 7 -d 0 -p ack -e 40 -c 0 -i 11 -a 0 -x {5.0 0.0 4 ------- null}
h -t 1.514324 -s 0 -d 7 -p tcp -e 1040 -c 0 -i 16 -a 0 -x {0.0 5.0 9 ------- null}
h -t 1.514324 -s 0 -d 7 -p tcp -e 1040 -c 0 -i 17 -a 0 -x {0.0 5.0 10 ------- null}
r -t 1.524984 -s 7 -d 0 -p ack -e 40 -c 0 -i 12 -a 0 -x {5.0 0.0 5 ------- null}
h -t 1.524984 -s 0 -d 7 -p tcp -e 1040 -c 0 -i 18 -a 0 -x {0.0 5.0 11 ------- null}
h -t 1.524984 -s 0 -d 7 -p tcp -e 1040 -c 0 -i 19 -a 0 -x {0.0 5.0 12 ------- null}
r -t 1.535644 -s 7 -d 0 -p ack -e 40 -c 0 -i 13 -a 0 -x {5.0 0.0 6 ------- null}
h -t 1.535644 -s 0 -d 7 -p tcp -e 1040 -c 0 -i 20 -a 0 -x {0.0 5.0 13 ------- null}
h -t 1.535644 -s 0 -d 7 -p tcp -e 1040 -c 0 -i 21 -a 0 -x {0.0 5.0 14 ------- null}
+ -t 1.543664 -s 0 -d 7 -p tcp -e 1040 -c 0 -i 14 -a 0 -x {0.0 5.0 7 ------- null}
- -t 1.543664 -s 0 -d 7 -p tcp -e 1040 -c 0 -i 14 -a 0 -x {0.0 5.0 7 ------- null}
h -t 1.543664 -s 0 -d 7 -p tcp -e 1040 -c 0 -i 14 -a 0 -x {0.0 5.0 -1 ------- null}
+ -t 1.543664 -s 0 -d 7 -p tcp -e 1040 -c 0 -i 15 -a 0 -x {0.0 5.0 8 ------- null}
+ -t 1.554324 -s 0 -d 7 -p tcp -e 1040 -c 0 -i 16 -a 0 -x {0.0 5.0 9 ------- null}
+ -t 1.554324 -s 0 -d 7 -p tcp -e 1040 -c 0 -i 17 -a 0 -x {0.0 5.0 10 ------- null}
- -t 1.554324 -s 0 -d 7 -p tcp -e 1040 -c 0 -i 15 -a 0 -x {0.0 5.0 8 ------- null}
h -t 1.554324 -s 0 -d 7 -p tcp -e 1040 -c 0 -i 15 -a 0 -x {0.0 5.0 -1 ------- null}
+ -t 1.564984 -s 0 -d 7 -p tcp -e 1040 -c 0 -i 18 -a 0 -x {0.0 5.0 11 ------- null}
+ -t 1.564984 -s 0 -d 7 -p tcp -e 1040 -c 0 -i 19 -a 0 -x {0.0 5.0 12 ------- null}
- -t 1.564984 -s 0 -d 7 -p tcp -e 1040 -c 0 -i 16 -a 0 -x {0.0 5.0 9 ------- null}
h -t 1.564984 -s 0 -d 7 -p tcp -e 1040 -c 0 -i 16 -a 0 -x {0.0 5.0 -1 ------- null}
+ -t 1.575644 -s 0 -d 7 -p tcp -e 1040 -c 0 -i 20 -a 0 -x {0.0 5.0 13 ------- null}
+ -t 1.575644 -s 0 -d 7 -p tcp -e 1040 -c 0 -i 21 -a 0 -x {0.0 5.0 14 ------- null}
- -t 1.575644 -s 0 -d 7 -p tcp -e 1040 -c 0 -i 17 -a 0 -x {0.0 5.0 10 ------- null}
h -t 1.575644 -s 0 -d 7 -p tcp -e 1040 -c 0 -i 17 -a 0 -x {0.0 5.0 -1 ------- null}
- -t 1.586304 -s 0 -d 7 -p tcp -e 1040 -c 0 -i 18 -a 0 -x {0.0 5.0 11 ------- null}
h -t 1.586304 -s 0 -d 7 -p tcp -e 1040 -c 0 -i 18 -a 0 -x {0.0 5.0 -1 ------- null}
r -t 1.594208 -s 7 -d 5 -p tcp -e 1040 -c 0 -i 14 -a 0 -x {0.0 5.0 7 ------- null}
h -t 1.594208 -s 5 -d 7 -p ack -e 40 -c 0 -i 22 -a 0 -x {5.0 0.0 7 ------- null}
- -t 1.596964 -s 0 -d 7 -p tcp -e 1040 -c 0 -i 19 -a 0 -x {0.0 5.0 12 ------- null}
h -t 1.596964 -s 0 -d 7 -p tcp -e 1040 -c 0 -i 19 -a 0 -x {0.0 5.0 -1 ------- null}
r -t 1.604868 -s 7 -d 5 -p tcp -e 1040 -c 0 -i 15 -a 0 -x {0.0 5.0 8 ------- null}
h -t 1.604868 -s 5 -d 7 -p ack -e 40 -c 0 -i 23 -a 0 -x {5.0 0.0 8 ------- null}
- -t 1.607624 -s 0 -d 7 -p tcp -e 1040 -c 0 -i 20 -a 0 -x {0.0 5.0 13 ------- null}
h -t 1.607624 -s 0 -d 7 -p tcp -e 1040 -c 0 -i 20 -a 0 -x {0.0 5.0 -1 ------- null}
r -t 1.615528 -s 7 -d 5 -p tcp -e 1040 -c 0 -i 16 -a 0 -x {0.0 5.0 9 ------- null}
h -t 1.615528 -s 5 -d 7 -p ack -e 40 -c 0 -i 24 -a 0 -x {5.0 0.0 9 ------- null}
- -t 1.618284 -s 0 -d 7 -p tcp -e 1040 -c 0 -i 21 -a 0 -x {0.0 5.0 14 ------- null}
h -t 1.618284 -s 0 -d 7 -p tcp -e 1040 -c 0 -i 21 -a 0 -x {0.0 5.0 -1 ------- null}
r -t 1.626188 -s 7 -d 5 -p tcp -e 1040 -c 0 -i 17 -a 0 -x {0.0 5.0 10 ------- null}
h -t 1.626188 -s 5 -d 7 -p ack -e 40 -c 0 -i 25 -a 0 -x {5.0 0.0 10 ------- null}
+ -t 1.634208 -s 5 -d 7 -p ack -e 40 -c 0 -i 22 -a 0 -x {5.0 0.0 7 ------- null}
- -t 1.634208 -s 5 -d 7 -p ack -e 40 -c 0 -i 22 -a 0 -x {5.0 0.0 7 ------- null}
h -t 1.634208 -s 5 -d 7 -p ack -e 40 -c 0 -i 22 -a 0 -x {5.0 0.0 -1 ------- null}
r -t 1.636848 -s 7 -d 5 -p tcp -e 1040 -c 0 -i 18 -a 0 -x {0.0 5.0 11 ------- null}
h -t 1.636848 -s 5 -d 7 -p ack -e 40 -c 0 -i 26 -a 0 -x {5.0 0.0 11 ------- null}
+ -t 1.644868 -s 5 -d 7 -p ack -e 40 -c 0 -i 23 -a 0 -x {5.0 0.0 8 ------- null}
- -t 1.644868 -s 5 -d 7 -p ack -e 40 -c 0 -i 23 -a 0 -x {5.0 0.0 8 ------- null}
h -t 1.644868 -s 5 -d 7 -p ack -e 40 -c 0 -i 23 -a 0 -x {5.0 0.0 -1 ------- null}
r -t 1.647508 -s 7 -d 5 -p tcp -e 1040 -c 0 -i 19 -a 0 -x {0.0 5.0 12 ------- null}
h -t 1.647508 -s 5 -d 7 -p ack -e 40 -c 0 -i 27 -a 0 -x {5.0 0.0 12 ------- null}
+ -t 1.655528 -s 5 -d 7 -p ack -e 40 -c 0 -i 24 -a 0 -x {5.0 0.0 9 ------- null}
- -t 1.655528 -s 5 -d 7 -p ack -e 40 -c 0 -i 24 -a 0 -x {5.0 0.0 9 ------- null}
h -t 1.655528 -s 5 -d 7 -p ack -e 40 -c 0 -i 24 -a 0 -x {5.0 0.0 -1 ------- null}
r -t 1.658168 -s 7 -d 5 -p tcp -e 1040 -c 0 -i 20 -a 0 -x {0.0 5.0 13 ------- null}
h -t 1.658168 -s 5 -d 7 -p ack -e 40 -c 0 -i 28 -a 0 -x {5.0 0.0 13 ------- null}
+ -t 1.666188 -s 5 -d 7 -p ack -e 40 -c 0 -i 25 -a 0 -x {5.0 0.0 10 ------- null}
- -t 1.666188 -s 5 -d 7 -p ack -e 40 -c 0 -i 25 -a 0 -x {5.0 0.0 10 ------- null}
h -t 1.666188 -s 5 -d 7 -p ack -e 40 -c 0 -i 25 -a 0 -x {5.0 0.0 -1 ------- null}
r -t 1.668828 -s 7 -d 5 -p tcp -e 1040 -c 0 -i 21 -a 0 -x {0.0 5.0 14 ------- null}
h -t 1.668828 -s 5 -d 7 -p ack -e 40 -c 0 -i 29 -a 0 -x {5.0 0.0 14 ------- null}
r -t 1.674852 -s 7 -d 0 -p ack -e 40 -c 0 -i 22 -a 0 -x {5.0 0.0 7 ------- null}
h -t 1.674852 -s 0 -d 7 -p tcp -e 1040 -c 0 -i 30 -a 0 -x {0.0 5.0 15 ------- null}
h -t 1.674852 -s 0 -d 7 -p tcp -e 1040 -c 0 -i 31 -a 0 -x {0.0 5.0 16 ------- null}
+ -t 1.676848 -s 5 -d 7 -p ack -e 40 -c 0 -i 26 -a 0 -x {5.0 0.0 11 ------- null}
- -t 1.676848 -s 5 -d 7 -p ack -e 40 -c 0 -i 26 -a 0 -x {5.0 0.0 11 ------- null}
h -t 1.676848 -s 5 -d 7 -p ack -e 40 -c 0 -i 26 -a 0 -x {5.0 0.0 -1 ------- null}
r -t 1.685512 -s 7 -d 0 -p ack -e 40 -c 0 -i 23 -a 0 -x {5.0 0.0 8 ------- null}
h -t 1.685512 -s 0 -d 7 -p tcp -e 1040 -c 0 -i 32 -a 0 -x {0.0 5.0 17 ------- null}
h -t 1.685512 -s 0 -d 7 -p tcp -e 1040 -c 0 -i 33 -a 0 -x {0.0 5.0 18 ------- null}
+ -t 1.687508 -s 5 -d 7 -p ack -e 40 -c 0 -i 27 -a 0 -x {5.0 0.0 12 ------- null}
- -t 1.687508 -s 5 -d 7 -p ack -e 40 -c 0 -i 27 -a 0 -x {5.0 0.0 12 ------- null}
h -t 1.687508 -s 5 -d 7 -p ack -e 40 -c 0 -i 27 -a 0 -x {5.0 0.0 -1 ------- null}
r -t 1.696172 -s 7 -d 0 -p ack -e 40 -c 0 -i 24 -a 0 -x {5.0 0.0 9 ------- null}
h -t 1.696172 -s 0 -d 7 -p tcp -e 1040 -c 0 -i 34 -a 0 -x {0.0 5.0 19 ------- null}
h -t 1.696172 -s 0 -d 7 -p tcp -e 1040 -c 0 -i 35 -a 0 -x {0.0 5.0 20 ------- null}
+ -t 1.698168 -s 5 -d 7 -p ack -e 40 -c 0 -i 28 -a 0 -x {5.0 0.0 13 ------- null}
- -t 1.698168 -s 5 -d 7 -p ack -e 40 -c 0 -i 28 -a 0 -x {5.0 0.0 13 ------- null}
h -t 1.698168 -s 5 -d 7 -p ack -e 40 -c 0 -i 28 -a 0 -x {5.0 0.0 -1 ------- null}
r -t 1.706832 -s 7 -d 0 -p ack -e 40 -c 0 -i 25 -a 0 -x {5.0 0.0 10 ------- null}
h -t 1.706832 -s 0 -d 7 -p tcp -e 1040 -c 0 -i 36 -a 0 -x {0.0 5.0 21 ------- null}
h -t 1.706832 -s 0 -d 7 -p tcp -e 1040 -c 0 -i 37 -a 0 -x {0.0 5.0 22 ------- null}
+ -t 1.708828 -s 5 -d 7 -p ack -e 40 -c 0 -i 29 -a 0 -x {5.0 0.0 14 ------- null}
- -t 1.708828 -s 5 -d 7 -p ack -e 40 -c 0 -i 29 -a 0 -x {5.0 0.0 14 ------- null}
h -t 1.708828 -s 5 -d 7 -p ack -e 40 -c 0 -i 29 -a 0 -x {5.0 0.0 -1 ------- null}
+ -t 1.714852 -s 0 -d 7 -p tcp -e 1040 -c 0 -i 30 -a 0 -x {0.0 5.0 15 ------- null}
- -t 1.714852 -s 0 -d 7 -p tcp -e 1040 -c 0 -i 30 -a 0 -x {0.0 5.0 15 ------- null}
h -t 1.714852 -s 0 -d 7 -p tcp -e 1040 -c 0 -i 30 -a 0 -x {0.0 5.0 -1 ------- null}
+ -t 1.714852 -s 0 -d 7 -p tcp -e 1040 -c 0 -i 31 -a 0 -x {0.0 5.0 16 ------- null}
r -t 1.717492 -s 7 -d 0 -p ack -e 40 -c 0 -i 26 -a 0 -x {5.0 0.0 11 ------- null}
h -t 1.717492 -s 0 -d 7 -p tcp -e 1040 -c 0 -i 38 -a 0 -x {0.0 5.0 23 ------- null}
h -t 1.717492 -s 0 -d 7 -p tcp -e 1040 -c 0 -i 39 -a 0 -x {0.0 5.0 24 ------- null}
+ -t 1.725512 -s 0 -d 7 -p tcp -e 1040 -c 0 -i 32 -a 0 -x {0.0 5.0 17 ------- null}
+ -t 1.725512 -s 0 -d 7 -p tcp -e 1040 -c 0 -i 33 -a 0 -x {0.0 5.0 18 ------- null}
- -t 1.725512 -s 0 -d 7 -p tcp -e 1040 -c 0 -i 31 -a 0 -x {0.0 5.0 16 ------- null}
h -t 1.725512 -s 0 -d 7 -p tcp -e 1040 -c 0 -i 31 -a 0 -x {0.0 5.0 -1 ------- null}
r -t 1.728152 -s 7 -d 0 -p ack -e 40 -c 0 -i 27 -a 0 -x {5.0 0.0 12 ------- null}
h -t 1.728152 -s 0 -d 7 -p tcp -e 1040 -c 0 -i 40 -a 0 -x {0.0 5.0 25 ------- null}
h -t 1.728152 -s 0 -d 7 -p tcp -e 1040 -c 0 -i 41 -a 0 -x {0.0 5.0 26 ------- null}
+ -t 1.736172 -s 0 -d 7 -p tcp -e 1040 -c 0 -i 34 -a 0 -x {0.0 5.0 19 ------- null}
+ -t 1.736172 -s 0 -d 7 -p tcp -e 1040 -c 0 -i 35 -a 0 -x {0.0 5.0 20 ------- null}
- -t 1.736172 -s 0 -d 7 -p tcp -e 1040 -c 0 -i 32 -a 0 -x {0.0 5.0 17 ------- null}
h -t 1.736172 -s 0 -d 7 -p tcp -e 1040 -c 0 -i 32 -a 0 -x {0.0 5.0 -1 ------- null}
r -t 1.738812 -s 7 -d 0 -p ack -e 40 -c 0 -i 28 -a 0 -x {5.0 0.0 13 ------- null}
h -t 1.738812 -s 0 -d 7 -p tcp -e 1040 -c 0 -i 42 -a 0 -x {0.0 5.0 27 ------- null}
h -t 1.738812 -s 0 -d 7 -p tcp -e 1040 -c 0 -i 43 -a 0 -x {0.0 5.0 28 ------- null}
+ -t 1.746832 -s 0 -d 7 -p tcp -e 1040 -c 0 -i 36 -a 0 -x {0.0 5.0 21 ------- null}
+ -t 1.746832 -s 0 -d 7 -p tcp -e 1040 -c 0 -i 37 -a 0 -x {0.0 5.0 22 ------- null}
- -t 1.746832 -s 0 -d 7 -p tcp -e 1040 -c 0 -i 33 -a 0 -x {0.0 5.0 18 ------- null}
h -t 1.746832 -s 0 -d 7 -p tcp -e 1040 -c 0 -i 33 -a 0 -x {0.0 5.0 -1 ------- null}
r -t 1.749472 -s 7 -d 0 -p ack -e 40 -c 0 -i 29 -a 0 -x {5.0 0.0 14 ------- null}
h -t 1.749472 -s 0 -d 7 -p tcp -e 1040 -c 0 -i 44 -a 0 -x {0.0 5.0 29 ------- null}
h -t 1.749472 -s 0 -d 7 -p tcp -e 1040 -c 0 -i 45 -a 0 -x {0.0 5.0 30 ------- null}
+ -t 1.757492 -s 0 -d 7 -p tcp -e 1040 -c 0 -i 38 -a 0 -x {0.0 5.0 23 ------- null}
+ -t 1.757492 -s 0 -d 7 -p tcp -e 1040 -c 0 -i 39 -a 0 -x {0.0 5.0 24 ------- null}
- -t 1.757492 -s 0 -d 7 -p tcp -e 1040 -c 0 -i 34 -a 0 -x {0.0 5.0 19 ------- null}
h -t 1.757492 -s 0 -d 7 -p tcp -e 1040 -c 0 -i 34 -a 0 -x {0.0 5.0 -1 ------- null}
r -t 1.765396 -s 7 -d 5 -p tcp -e 1040 -c 0 -i 30 -a 0 -x {0.0 5.0 15 ------- null}
h -t 1.765396 -s 5 -d 7 -p ack -e 40 -c 0 -i 46 -a 0 -x {5.0 0.0 15 ------- null}
+ -t 1.768152 -s 0 -d 7 -p tcp -e 1040 -c 0 -i 40 -a 0 -x {0.0 5.0 25 ------- null}
+ -t 1.768152 -s 0 -d 7 -p tcp -e 1040 -c 0 -i 41 -a 0 -x {0.0 5.0 26 ------- null}
- -t 1.768152 -s 0 -d 7 -p tcp -e 1040 -c 0 -i 35 -a 0 -x {0.0 5.0 20 ------- null}
h -t 1.768152 -s 0 -d 7 -p tcp -e 1040 -c 0 -i 35 -a 0 -x {0.0 5.0 -1 ------- null}
r -t 1.776056 -s 7 -d 5 -p tcp -e 1040 -c 0 -i 31 -a 0 -x {0.0 5.0 16 ------- null}
h -t 1.776056 -s 5 -d 7 -p ack -e 40 -c 0 -i 47 -a 0 -x {5.0 0.0 16 ------- null}
+ -t 1.778812 -s 0 -d 7 -p tcp -e 1040 -c 0 -i 42 -a 0 -x {0.0 5.0 27 ------- null}
+ -t 1.778812 -s 0 -d 7 -p tcp -e 1040 -c 0 -i 43 -a 0 -x {0.0 5.0 28 ------- null}
- -t 1.778812 -s 0 -d 7 -p tcp -e 1040 -c 0 -i 36 -a 0 -x {0.0 5.0 21 ------- null}
h -t 1.778812 -s 0 -d 7 -p tcp -e 1040 -c 0 -i 36 -a 0 -x {0.0 5.0 -1 ------- null}
r -t 1.786716 -s 7 -d 5 -p tcp -e 1040 -c 0 -i 32 -a 0 -x {0.0 5.0 17 ------- null}
h -t 1.786716 -s 5 -d 7 -p ack -e 40 -c 0 -i 48 -a 0 -x {5.0 0.0 17 ------- null}
+ -t 1.789472 -s 0 -d 7 -p tcp -e 1040 -c 0 -i 44 -a 0 -x {0.0 5.0 29 ------- null}
+ -t 1.789472 -s 0 -d 7 -p tcp -e 1040 -c 0 -i 45 -a 0 -x {0.0 5.0 30 ------- null}
- -t 1.789472 -s 0 -d 7 -p tcp -e 1040 -c 0 -i 37 -a 0 -x {0.0 5.0 22 ------- null}
h -t 1.789472 -s 0 -d 7 -p tcp -e 1040 -c 0 -i 37 -a 0 -x {0.0 5.0 -1 ------- null}
r -t 1.797376 -s 7 -d 5 -p tcp -e 1040 -c 0 -i 33 -a 0 -x {0.0 5.0 18 ------- null}
h -t 1.797376 -s 5 -d 7 -p ack -e 40 -c 0 -i 49 -a 0 -x {5.0 0.0 18 ------- null}
- -t 1.800132 -s 0 -d 7 -p tcp -e 1040 -c 0 -i 38 -a 0 -x {0.0 5.0 23 ------- null}
h -t 1.800132 -s 0 -d 7 -p tcp -e 1040 -c 0 -i 38 -a 0 -x {0.0 5.0 -1 ------- null}
+ -t 1.805396 -s 5 -d 7 -p ack -e 40 -c 0 -i 46 -a 0 -x {5.0 0.0 15 ------- null}
- -t 1.805396 -s 5 -d 7 -p ack -e 40 -c 0 -i 46 -a 0 -x {5.0 0.0 15 ------- null}
h -t 1.805396 -s 5 -d 7 -p ack -e 40 -c 0 -i 46 -a 0 -x {5.0 0.0 -1 ------- null}
r -t 1.808036 -s 7 -d 5 -p tcp -e 1040 -c 0 -i 34 -a 0 -x {0.0 5.0 19 ------- null}
h -t 1.808036 -s 5 -d 7 -p ack -e 40 -c 0 -i 50 -a 0 -x {5.0 0.0 19 ------- null}
- -t 1.810792 -s 0 -d 7 -p tcp -e 1040 -c 0 -i 39 -a 0 -x {0.0 5.0 24 ------- null}
h -t 1.810792 -s 0 -d 7 -p tcp -e 1040 -c 0 -i 39 -a 0 -x {0.0 5.0 -1 ------- null}
+ -t 1.816056 -s 5 -d 7 -p ack -e 40 -c 0 -i 47 -a 0 -x {5.0 0.0 16 ------- null}
- -t 1.816056 -s 5 -d 7 -p ack -e 40 -c 0 -i 47 -a 0 -x {5.0 0.0 16 ------- null}
h -t 1.816056 -s 5 -d 7 -p ack -e 40 -c 0 -i 47 -a 0 -x {5.0 0.0 -1 ------- null}
r -t 1.818696 -s 7 -d 5 -p tcp -e 1040 -c 0 -i 35 -a 0 -x {0.0 5.0 20 ------- null}
h -t 1.818696 -s 5 -d 7 -p ack -e 40 -c 0 -i 51 -a 0 -x {5.0 0.0 20 ------- null}
- -t 1.82238 -s 0 -d 7 -p tcp -e 1040 -c 0 -i 40 -a 0 -x {0.0 5.0 25 ------- null}
h -t 1.82238 -s 0 -d 7 -p tcp -e 1040 -c 0 -i 40 -a 0 -x {0.0 5.0 -1 ------- null}
+ -t 1.826716 -s 5 -d 7 -p ack -e 40 -c 0 -i 48 -a 0 -x {5.0 0.0 17 ------- null}
r -t 1.829356 -s 7 -d 5 -p tcp -e 1040 -c 0 -i 36 -a 0 -x {0.0 5.0 21 ------- null}
h -t 1.829356 -s 5 -d 7 -p ack -e 40 -c 0 -i 52 -a 0 -x {5.0 0.0 21 ------- null}
- -t 1.833208 -s 0 -d 7 -p tcp -e 1040 -c 0 -i 41 -a 0 -x {0.0 5.0 26 ------- null}
h -t 1.833208 -s 0 -d 7 -p tcp -e 1040 -c 0 -i 41 -a 0 -x {0.0 5.0 -1 ------- null}
+ -t 1.837376 -s 5 -d 7 -p ack -e 40 -c 0 -i 49 -a 0 -x {5.0 0.0 18 ------- null}
r -t 1.840016 -s 7 -d 5 -p tcp -e 1040 -c 0 -i 37 -a 0 -x {0.0 5.0 22 ------- null}
h -t 1.840016 -s 5 -d 7 -p ack -e 40 -c 0 -i 53 -a 0 -x {5.0 0.0 22 ------- null}
- -t 1.844676 -s 0 -d 7 -p tcp -e 1040 -c 0 -i 42 -a 0 -x {0.0 5.0 27 ------- null}
h -t 1.844676 -s 0 -d 7 -p tcp -e 1040 -c 0 -i 42 -a 0 -x {0.0 5.0 -1 ------- null}
+ -t 1.848036 -s 5 -d 7 -p ack -e 40 -c 0 -i 50 -a 0 -x {5.0 0.0 19 ------- null}
r -t 1.850676 -s 7 -d 5 -p tcp -e 1040 -c 0 -i 38 -a 0 -x {0.0 5.0 23 ------- null}
h -t 1.850676 -s 5 -d 7 -p ack -e 40 -c 0 -i 54 -a 0 -x {5.0 0.0 23 ------- null}
r -t 1.8516 -s 7 -d 0 -p ack -e 40 -c 0 -i 46 -a 0 -x {5.0 0.0 15 ------- null}
h -t 1.8516 -s 0 -d 7 -p tcp -e 1040 -c 0 -i 55 -a 0 -x {0.0 5.0 31 ------- null}
h -t 1.8516 -s 0 -d 7 -p tcp -e 1040 -c 0 -i 56 -a 0 -x {0.0 5.0 32 ------- null}
- -t 1.855504 -s 0 -d 7 -p tcp -e 1040 -c 0 -i 43 -a 0 -x {0.0 5.0 28 ------- null}
h -t 1.855504 -s 0 -d 7 -p tcp -e 1040 -c 0 -i 43 -a 0 -x {0.0 5.0 -1 ------- null}
+ -t 1.858696 -s 5 -d 7 -p ack -e 40 -c 0 -i 51 -a 0 -x {5.0 0.0 20 ------- null}
r -t 1.862264 -s 7 -d 5 -p tcp -e 1040 -c 0 -i 39 -a 0 -x {0.0 5.0 24 ------- null}
h -t 1.862264 -s 5 -d 7 -p ack -e 40 -c 0 -i 57 -a 0 -x {5.0 0.0 24 ------- null}
- -t 1.866972 -s 0 -d 7 -p tcp -e 1040 -c 0 -i 44 -a 0 -x {0.0 5.0 29 ------- null}
h -t 1.866972 -s 0 -d 7 -p tcp -e 1040 -c 0 -i 44 -a 0 -x {0.0 5.0 -1 ------- null}
+ -t 1.869356 -s 5 -d 7 -p ack -e 40 -c 0 -i 52 -a 0 -x {5.0 0.0 21 ------- null}
r -t 1.873092 -s 7 -d 5 -p tcp -e 1040 -c 0 -i 40 -a 0 -x {0.0 5.0 25 ------- null}
h -t 1.873092 -s 5 -d 7 -p ack -e 40 -c 0 -i 58 -a 0 -x {5.0 0.0 25 ------- null}
- -t 1.8778 -s 0 -d 7 -p tcp -e 1040 -c 0 -i 45 -a 0 -x {0.0 5.0 30 ------- null}
h -t 1.8778 -s 0 -d 7 -p tcp -e 1040 -c 0 -i 45 -a 0 -x {0.0 5.0 -1 ------- null}
+ -t 1.880016 -s 5 -d 7 -p ack -e 40 -c 0 -i 53 -a 0 -x {5.0 0.0 22 ------- null}
r -t 1.88456 -s 7 -d 5 -p tcp -e 1040 -c 0 -i 41 -a 0 -x {0.0 5.0 26 ------- null}
h -t 1.88456 -s 5 -d 7 -p ack -e 40 -c 0 -i 59 -a 0 -x {5.0 0.0 26 ------- null}
- -t 1.889224 -s 5 -d 7 -p ack -e 40 -c 0 -i 48 -a 0 -x {5.0 0.0 17 ------- null}
h -t 1.889224 -s 5 -d 7 -p ack -e 40 -c 0 -i 48 -a 0 -x {5.0 0.0 -1 ------- null}
- -t 1.889984 -s 5 -d 7 -p ack -e 40 -c 0 -i 49 -a 0 -x {5.0 0.0 18 ------- null}
h -t 1.889984 -s 5 -d 7 -p ack -e 40 -c 0 -i 49 -a 0 -x {5.0 0.0 -1 ------- null}
+ -t 1.890676 -s 5 -d 7 -p ack -e 40 -c 0 -i 54 -a 0 -x {5.0 0.0 23 ------- null}
- -t 1.890744 -s 5 -d 7 -p ack -e 40 -c 0 -i 50 -a 0 -x {5.0 0.0 19 ------- null}
h -t 1.890744 -s 5 -d 7 -p ack -e 40 -c 0 -i 50 -a 0 -x {5.0 0.0 -1 ------- null}
- -t 1.891504 -s 5 -d 7 -p ack -e 40 -c 0 -i 51 -a 0 -x {5.0 0.0 20 ------- null}
h -t 1.891504 -s 5 -d 7 -p ack -e 40 -c 0 -i 51 -a 0 -x {5.0 0.0 -1 ------- null}
+ -t 1.8916 -s 0 -d 7 -p tcp -e 1040 -c 0 -i 55 -a 0 -x {0.0 5.0 31 ------- null}
- -t 1.8916 -s 0 -d 7 -p tcp -e 1040 -c 0 -i 55 -a 0 -x {0.0 5.0 31 ------- null}
h -t 1.8916 -s 0 -d 7 -p tcp -e 1040 -c 0 -i 55 -a 0 -x {0.0 5.0 -1 ------- null}
+ -t 1.8916 -s 0 -d 7 -p tcp -e 1040 -c 0 -i 56 -a 0 -x {0.0 5.0 32 ------- null}
- -t 1.892264 -s 5 -d 7 -p ack -e 40 -c 0 -i 52 -a 0 -x {5.0 0.0 21 ------- null}
h -t 1.892264 -s 5 -d 7 -p ack -e 40 -c 0 -i 52 -a 0 -x {5.0 0.0 -1 ------- null}
- -t 1.89319199999999 -s 5 -d 7 -p ack -e 40 -c 0 -i 53 -a 0 -x {5.0 0.0 22 ------- null}
h -t 1.89319199999999 -s 5 -d 7 -p ack -e 40 -c 0 -i 53 -a 0 -x {5.0 0.0 -1 ------- null}
- -t 1.89475999999999 -s 5 -d 7 -p ack -e 40 -c 0 -i 54 -a 0 -x {5.0 0.0 23 ------- null}
h -t 1.89475999999999 -s 5 -d 7 -p ack -e 40 -c 0 -i 54 -a 0 -x {5.0 0.0 -1 ------- null}
r -t 1.895388 -s 7 -d 5 -p tcp -e 1040 -c 0 -i 42 -a 0 -x {0.0 5.0 27 ------- null}
h -t 1.895388 -s 5 -d 7 -p ack -e 40 -c 0 -i 60 -a 0 -x {5.0 0.0 27 ------- null}
+ -t 1.902264 -s 5 -d 7 -p ack -e 40 -c 0 -i 57 -a 0 -x {5.0 0.0 24 ------- null}
- -t 1.902264 -s 5 -d 7 -p ack -e 40 -c 0 -i 57 -a 0 -x {5.0 0.0 24 ------- null}
h -t 1.902264 -s 5 -d 7 -p ack -e 40 -c 0 -i 57 -a 0 -x {5.0 0.0 -1 ------- null}
- -t 1.90618399999999 -s 0 -d 7 -p tcp -e 1040 -c 0 -i 56 -a 0 -x {0.0 5.0 32 ------- null}
h -t 1.90618399999999 -s 0 -d 7 -p tcp -e 1040 -c 0 -i 56 -a 0 -x {0.0 5.0 -1 ------- null}
r -t 1.906856 -s 7 -d 5 -p tcp -e 1040 -c 0 -i 43 -a 0 -x {0.0 5.0 28 ------- null}
h -t 1.906856 -s 5 -d 7 -p ack -e 40 -c 0 -i 61 -a 0 -x {5.0 0.0 28 ------- null}
+ -t 1.913092 -s 5 -d 7 -p ack -e 40 -c 0 -i 58 -a 0 -x {5.0 0.0 25 ------- null}
- -t 1.913092 -s 5 -d 7 -p ack -e 40 -c 0 -i 58 -a 0 -x {5.0 0.0 25 ------- null}
h -t 1.913092 -s 5 -d 7 -p ack -e 40 -c 0 -i 58 -a 0 -x {5.0 0.0 -1 ------- null}
r -t 1.917684 -s 7 -d 5 -p tcp -e 1040 -c 0 -i 44 -a 0 -x {0.0 5.0 29 ------- null}
h -t 1.917684 -s 5 -d 7 -p ack -e 40 -c 0 -i 62 -a 0 -x {5.0 0.0 29 ------- null}
+ -t 1.92456 -s 5 -d 7 -p ack -e 40 -c 0 -i 59 -a 0 -x {5.0 0.0 26 ------- null}
- -t 1.92456 -s 5 -d 7 -p ack -e 40 -c 0 -i 59 -a 0 -x {5.0 0.0 26 ------- null}
h -t 1.92456 -s 5 -d 7 -p ack -e 40 -c 0 -i 59 -a 0 -x {5.0 0.0 -1 ------- null}
r -t 1.928344 -s 7 -d 5 -p tcp -e 1040 -c 0 -i 45 -a 0 -x {0.0 5.0 30 ------- null}
h -t 1.928344 -s 5 -d 7 -p ack -e 40 -c 0 -i 63 -a 0 -x {5.0 0.0 30 ------- null}
r -t 1.929108 -s 7 -d 0 -p ack -e 40 -c 0 -i 47 -a 0 -x {5.0 0.0 16 ------- null}
h -t 1.929108 -s 0 -d 7 -p tcp -e 1040 -c 0 -i 64 -a 0 -x {0.0 5.0 33 ------- null}
h -t 1.929108 -s 0 -d 7 -p tcp -e 1040 -c 0 -i 65 -a 0 -x {0.0 5.0 34 ------- null}
r -t 1.929868 -s 7 -d 0 -p ack -e 40 -c 0 -i 48 -a 0 -x {5.0 0.0 17 ------- null}
h -t 1.929868 -s 0 -d 7 -p tcp -e 1040 -c 0 -i 66 -a 0 -x {0.0 5.0 35 ------- null}
h -t 1.929868 -s 0 -d 7 -p tcp -e 1040 -c 0 -i 67 -a 0 -x {0.0 5.0 36 ------- null}
r -t 1.930628 -s 7 -d 0 -p ack -e 40 -c 0 -i 49 -a 0 -x {5.0 0.0 18 ------- null}
h -t 1.930628 -s 0 -d 7 -p tcp -e 1040 -c 0 -i 68 -a 0 -x {0.0 5.0 37 ------- null}
h -t 1.930628 -s 0 -d 7 -p tcp -e 1040 -c 0 -i 69 -a 0 -x {0.0 5.0 38 ------- null}
r -t 1.931388 -s 7 -d 0 -p ack -e 40 -c 0 -i 50 -a 0 -x {5.0 0.0 19 ------- null}
h -t 1.931388 -s 0 -d 7 -p tcp -e 1040 -c 0 -i 70 -a 0 -x {0.0 5.0 39 ------- null}
r -t 1.932148 -s 7 -d 0 -p ack -e 40 -c 0 -i 51 -a 0 -x {5.0 0.0 20 ------- null}
h -t 1.932148 -s 0 -d 7 -p tcp -e 1040 -c 0 -i 71 -a 0 -x {0.0 5.0 40 ------- null}
r -t 1.93307599999999 -s 7 -d 0 -p ack -e 40 -c 0 -i 52 -a 0 -x {5.0 0.0 21 ------- null}
h -t 1.93307599999999 -s 0 -d 7 -p tcp -e 1040 -c 0 -i 72 -a 0 -x {0.0 5.0 41 ------- null}
r -t 1.93464399999999 -s 7 -d 0 -p ack -e 40 -c 0 -i 53 -a 0 -x {5.0 0.0 22 ------- null}
h -t 1.93464399999999 -s 0 -d 7 -p tcp -e 1040 -c 0 -i 73 -a 0 -x {0.0 5.0 42 ------- null}
+ -t 1.935388 -s 5 -d 7 -p ack -e 40 -c 0 -i 60 -a 0 -x {5.0 0.0 27 ------- null}
- -t 1.935388 -s 5 -d 7 -p ack -e 40 -c 0 -i 60 -a 0 -x {5.0 0.0 27 ------- null}
h -t 1.935388 -s 5 -d 7 -p ack -e 40 -c 0 -i 60 -a 0 -x {5.0 0.0 -1 ------- null}
r -t 1.93540399999999 -s 7 -d 0 -p ack -e 40 -c 0 -i 54 -a 0 -x {5.0 0.0 23 ------- null}
h -t 1.93540399999999 -s 0 -d 7 -p tcp -e 1040 -c 0 -i 74 -a 0 -x {0.0 5.0 43 ------- null}
r -t 1.94606799999999 -s 7 -d 5 -p tcp -e 1040 -c 0 -i 55 -a 0 -x {0.0 5.0 31 ------- null}
h -t 1.94606799999999 -s 5 -d 7 -p ack -e 40 -c 0 -i 75 -a 0 -x {5.0 0.0 31 ------- null}
+ -t 1.946856 -s 5 -d 7 -p ack -e 40 -c 0 -i 61 -a 0 -x {5.0 0.0 28 ------- null}
- -t 1.946856 -s 5 -d 7 -p ack -e 40 -c 0 -i 61 -a 0 -x {5.0 0.0 28 ------- null}
h -t 1.946856 -s 5 -d 7 -p ack -e 40 -c 0 -i 61 -a 0 -x {5.0 0.0 -1 ------- null}
r -t 1.94779999999999 -s 7 -d 0 -p ack -e 40 -c 0 -i 57 -a 0 -x {5.0 0.0 24 ------- null}
h -t 1.94779999999999 -s 0 -d 7 -p tcp -e 1040 -c 0 -i 76 -a 0 -x {0.0 5.0 44 ------- null}
+ -t 1.957684 -s 5 -d 7 -p ack -e 40 -c 0 -i 62 -a 0 -x {5.0 0.0 29 ------- null}
- -t 1.957684 -s 5 -d 7 -p ack -e 40 -c 0 -i 62 -a 0 -x {5.0 0.0 29 ------- null}
h -t 1.957684 -s 5 -d 7 -p ack -e 40 -c 0 -i 62 -a 0 -x {5.0 0.0 -1 ------- null}
r -t 1.95846399999999 -s 7 -d 5 -p tcp -e 1040 -c 0 -i 56 -a 0 -x {0.0 5.0 32 ------- null}
h -t 1.95846399999999 -s 5 -d 7 -p ack -e 40 -c 0 -i 77 -a 0 -x {5.0 0.0 32 ------- null}
r -t 1.95922799999999 -s 7 -d 0 -p ack -e 40 -c 0 -i 58 -a 0 -x {5.0 0.0 25 ------- null}
h -t 1.95922799999999 -s 0 -d 7 -p tcp -e 1040 -c 0 -i 78 -a 0 -x {0.0 5.0 45 ------- null}
r -t 1.965204 -s 7 -d 0 -p ack -e 40 -c 0 -i 59 -a 0 -x {5.0 0.0 26 ------- null}
h -t 1.965204 -s 0 -d 7 -p tcp -e 1040 -c 0 -i 79 -a 0 -x {0.0 5.0 46 ------- null}
+ -t 1.968344 -s 5 -d 7 -p ack -e 40 -c 0 -i 63 -a 0 -x {5.0 0.0 30 ------- null}
- -t 1.968344 -s 5 -d 7 -p ack -e 40 -c 0 -i 63 -a 0 -x {5.0 0.0 30 ------- null}
h -t 1.968344 -s 5 -d 7 -p ack -e 40 -c 0 -i 63 -a 0 -x {5.0 0.0 -1 ------- null}
+ -t 1.969108 -s 0 -d 7 -p tcp -e 1040 -c 0 -i 64 -a 0 -x {0.0 5.0 33 ------- null}
- -t 1.969108 -s 0 -d 7 -p tcp -e 1040 -c 0 -i 64 -a 0 -x {0.0 5.0 33 ------- null}
h -t 1.969108 -s 0 -d 7 -p tcp -e 1040 -c 0 -i 64 -a 0 -x {0.0 5.0 -1 ------- null}
+ -t 1.969108 -s 0 -d 7 -p tcp -e 1040 -c 0 -i 65 -a 0 -x {0.0 5.0 34 ------- null}
+ -t 1.969868 -s 0 -d 7 -p tcp -e 1040 -c 0 -i 66 -a 0 -x {0.0 5.0 35 ------- null}
+ -t 1.969868 -s 0 -d 7 -p tcp -e 1040 -c 0 -i 67 -a 0 -x {0.0 5.0 36 ------- null}
+ -t 1.970628 -s 0 -d 7 -p tcp -e 1040 -c 0 -i 68 -a 0 -x {0.0 5.0 37 ------- null}
+ -t 1.970628 -s 0 -d 7 -p tcp -e 1040 -c 0 -i 69 -a 0 -x {0.0 5.0 38 ------- null}
+ -t 1.971388 -s 0 -d 7 -p tcp -e 1040 -c 0 -i 70 -a 0 -x {0.0 5.0 39 ------- null}
+ -t 1.972148 -s 0 -d 7 -p tcp -e 1040 -c 0 -i 71 -a 0 -x {0.0 5.0 40 ------- null}
+ -t 1.97307599999999 -s 0 -d 7 -p tcp -e 1040 -c 0 -i 72 -a 0 -x {0.0 5.0 41 ------- null}
+ -t 1.97464399999999 -s 0 -d 7 -p tcp -e 1040 -c 0 -i 73 -a 0 -x {0.0 5.0 42 ------- null}
+ -t 1.97540399999999 -s 0 -d 7 -p tcp -e 1040 -c 0 -i 74 -a 0 -x {0.0 5.0 43 ------- null}
r -t 1.976032 -s 7 -d 0 -p ack -e 40 -c 0 -i 60 -a 0 -x {5.0 0.0 27 ------- null}
h -t 1.976032 -s 0 -d 7 -p tcp -e 1040 -c 0 -i 80 -a 0 -x {0.0 5.0 47 ------- null}
- -t 1.979768 -s 0 -d 7 -p tcp -e 1040 -c 0 -i 65 -a 0 -x {0.0 5.0 34 ------- null}
h -t 1.979768 -s 0 -d 7 -p tcp -e 1040 -c 0 -i 65 -a 0 -x {0.0 5.0 -1 ------- null}
+ -t 1.98606799999999 -s 5 -d 7 -p ack -e 40 -c 0 -i 75 -a 0 -x {5.0 0.0 31 ------- null}
- -t 1.98606799999999 -s 5 -d 7 -p ack -e 40 -c 0 -i 75 -a 0 -x {5.0 0.0 31 ------- null}
h -t 1.98606799999999 -s 5 -d 7 -p ack -e 40 -c 0 -i 75 -a 0 -x {5.0 0.0 -1 ------- null}
r -t 1.9875 -s 7 -d 0 -p ack -e 40 -c 0 -i 61 -a 0 -x {5.0 0.0 28 ------- null}