+ 0.5 0 2 tcp 40 ------- 1 0.0 3.0 0 0
- 0.5 0 2 tcp 40 ------- 1 0.0 3.0 0 0
r 0.51032 0 2 tcp 40 ------- 1 0.0 3.0 0 0
+ 0.51032 2 3 tcp 40 ------- 1 0.0 3.0 0 0
- 0.51032 2 3 tcp 40 ------- 1 0.0 3.0 0 0
r 0.52096 2 3 tcp 40 ------- 1 0.0 3.0 0 0
+ 0.52096 3 2 ack 40 ------- 1 3.0 0.0 0 1
- 0.52096 3 2 ack 40 ------- 1 3.0 0.0 0 1
r 0.5316 3 2 ack 40 ------- 1 3.0 0.0 0 1
+ 0.5316 2 0 ack 40 ------- 1 3.0 0.0 0 1
- 0.5316 2 0 ack 40 ------- 1 3.0 0.0 0 1
r 0.54192 2 0 ack 40 ------- 1 3.0 0.0 0 1
+ 0.54192 0 2 tcp 1040 ------- 1 0.0 3.0 1 2
- 0.54192 0 2 tcp 1040 ------- 1 0.0 3.0 1 2
+ 0.54192 0 2 tcp 1040 ------- 1 0.0 3.0 2 3
- 0.55024 0 2 tcp 1040 ------- 1 0.0 3.0 2 3
r 0.56024 0 2 tcp 1040 ------- 1 0.0 3.0 1 2
+ 0.56024 2 3 tcp 1040 ------- 1 0.0 3.0 1 2
- 0.56024 2 3 tcp 1040 ------- 1 0.0 3.0 1 2
r 0.56856 0 2 tcp 1040 ------- 1 0.0 3.0 2 3
+ 0.56856 2 3 tcp 1040 ------- 1 0.0 3.0 2 3
- 0.57688 2 3 tcp 1040 ------- 1 0.0 3.0 2 3
r 0.58688 2 3 tcp 1040 ------- 1 0.0 3.0 1 2
+ 0.58688 3 2 ack 40 ------- 1 3.0 0.0 1 4
- 0.58688 3 2 ack 40 ------- 1 3.0 0.0 1 4
r 0.59752 3 2 ack 40 ------- 1 3.0 0.0 1 4
+ 0.59752 2 0 ack 40 ------- 1 3.0 0.0 1 4
- 0.59752 2 0 ack 40 ------- 1 3.0 0.0 1 4
r 0.60352 2 3 tcp 1040 ------- 1 0.0 3.0 2 3
+ 0.60352 3 2 ack 40 ------- 1 3.0 0.0 2 5
- 0.60352 3 2 ack 40 ------- 1 3.0 0.0 2 5
r 0.60784 2 0 ack 40 ------- 1 3.0 0.0 1 4
+ 0.60784 0 2 tcp 1040 ------- 1 0.0 3.0 3 6
- 0.60784 0 2 tcp 1040 ------- 1 0.0 3.0 3 6
+ 0.60784 0 2 tcp 1040 ------- 1 0.0 3.0 4 7
r 0.61416 3 2 ack 40 ------- 1 3.0 0.0 2 5
+ 0.61416 2 0 ack 40 ------- 1 3.0 0.0 2 5
- 0.61416 2 0 ack 40 ------- 1 3.0 0.0 2 5
- 0.61616 0 2 tcp 1040 ------- 1 0.0 3.0 4 7
r 0.62448 2 0 ack 40 ------- 1 3.0 0.0 2 5
+ 0.62448 0 2 tcp 1040 ------- 1 0.0 3.0 5 8
+ 0.62448 0 2 tcp 1040 ------- 1 0.0 3.0 6 9
- 0.62448 0 2 tcp 1040 ------- 1 0.0 3.0 5 8
r 0.62616 0 2 tcp 1040 ------- 1 0.0 3.0 3 6
+ 0.62616 2 3 tcp 1040 ------- 1 0.0 3.0 3 6
- 0.62616 2 3 tcp 1040 ------- 1 0.0 3.0 3 6
- 0.6328 0 2 tcp 1040 ------- 1 0.0 3.0 6 9
r 0.63448 0 2 tcp 1040 ------- 1 0.0 3.0 4 7
+ 0.63448 2 3 tcp 1040 ------- 1 0.0 3.0 4 7
r 0.6428 0 2 tcp 1040 ------- 1 0.0 3.0 5 8
+ 0.6428 2 3 tcp 1040 ------- 1 0.0 3.0 5 8
- 0.6428 2 3 tcp 1040 ------- 1 0.0 3.0 4 7
r 0.65112 0 2 tcp 1040 ------- 1 0.0 3.0 6 9
+ 0.65112 2 3 tcp 1040 ------- 1 0.0 3.0 6 9
r 0.6528 2 3 tcp 1040 ------- 1 0.0 3.0 3 6
+ 0.6528 3 2 ack 40 ------- 1 3.0 0.0 3 10
- 0.6528 3 2 ack 40 ------- 1 3.0 0.0 3 10
- 0.65944 2 3 tcp 1040 ------- 1 0.0 3.0 5 8
r 0.66344 3 2 ack 40 ------- 1 3.0 0.0 3 10
+ 0.66344 2 0 ack 40 ------- 1 3.0 0.0 3 10
- 0.66344 2 0 ack 40 ------- 1 3.0 0.0 3 10
r 0.66944 2 3 tcp 1040 ------- 1 0.0 3.0 4 7
+ 0.66944 3 2 ack 40 ------- 1 3.0 0.0 4 11
- 0.66944 3 2 ack 40 ------- 1 3.0 0.0 4 11
r 0.67376 2 0 ack 40 ------- 1 3.0 0.0 3 10
+ 0.67376 0 2 tcp 1040 ------- 1 0.0 3.0 7 12
- 0.67376 0 2 tcp 1040 ------- 1 0.0 3.0 7 12
+ 0.67376 0 2 tcp 1040 ------- 1 0.0 3.0 8 13
- 0.67608 2 3 tcp 1040 ------- 1 0.0 3.0 6 9
r 0.68008 3 2 ack 40 ------- 1 3.0 0.0 4 11
+ 0.68008 2 0 ack 40 ------- 1 3.0 0.0 4 11
- 0.68008 2 0 ack 40 ------- 1 3.0 0.0 4 11
- 0.68208 0 2 tcp 1040 ------- 1 0.0 3.0 8 13
r 0.68608 2 3 tcp 1040 ------- 1 0.0 3.0 5 8
+ 0.68608 3 2 ack 40 ------- 1 3.0 0.0 5 14
- 0.68608 3 2 ack 40 ------- 1 3.0 0.0 5 14
r 0.6904 2 0 ack 40 ------- 1 3.0 0.0 4 11
+ 0.6904 0 2 tcp 1040 ------- 1 0.0 3.0 9 15
+ 0.6904 0 2 tcp 1040 ------- 1 0.0 3.0 10 16
- 0.6904 0 2 tcp 1040 ------- 1 0.0 3.0 9 15
r 0.69208 0 2 tcp 1040 ------- 1 0.0 3.0 7 12
+ 0.69208 2 3 tcp 1040 ------- 1 0.0 3.0 7 12
- 0.69272 2 3 tcp 1040 ------- 1 0.0 3.0 7 12
r 0.69672 3 2 ack 40 ------- 1 3.0 0.0 5 14
+ 0.69672 2 0 ack 40 ------- 1 3.0 0.0 5 14
- 0.69672 2 0 ack 40 ------- 1 3.0 0.0 5 14
- 0.69872 0 2 tcp 1040 ------- 1 0.0 3.0 10 16
r 0.7004 0 2 tcp 1040 ------- 1 0.0 3.0 8 13
+ 0.7004 2 3 tcp 1040 ------- 1 0.0 3.0 8 13
r 0.70272 2 3 tcp 1040 ------- 1 0.0 3.0 6 9
+ 0.70272 3 2 ack 40 ------- 1 3.0 0.0 6 17
- 0.70272 3 2 ack 40 ------- 1 3.0 0.0 6 17
r 0.70704 2 0 ack 40 ------- 1 3.0 0.0 5 14
+ 0.70704 0 2 tcp 1040 ------- 1 0.0 3.0 11 18
+ 0.70704 0 2 tcp 1040 ------- 1 0.0 3.0 12 19
- 0.70704 0 2 tcp 1040 ------- 1 0.0 3.0 11 18
r 0.70872 0 2 tcp 1040 ------- 1 0.0 3.0 9 15
+ 0.70872 2 3 tcp 1040 ------- 1 0.0 3.0 9 15
- 0.70936 2 3 tcp 1040 ------- 1 0.0 3.0 8 13
r 0.71336 3 2 ack 40 ------- 1 3.0 0.0 6 17
+ 0.71336 2 0 ack 40 ------- 1 3.0 0.0 6 17
- 0.71336 2 0 ack 40 ------- 1 3.0 0.0 6 17
- 0.71536 0 2 tcp 1040 ------- 1 0.0 3.0 12 19
r 0.71704 0 2 tcp 1040 ------- 1 0.0 3.0 10 16
+ 0.71704 2 3 tcp 1040 ------- 1 0.0 3.0 10 16
r 0.71936 2 3 tcp 1040 ------- 1 0.0 3.0 7 12
+ 0.71936 3 2 ack 40 ------- 1 3.0 0.0 7 20
- 0.71936 3 2 ack 40 ------- 1 3.0 0.0 7 20
r 0.72368 2 0 ack 40 ------- 1 3.0 0.0 6 17
+ 0.72368 0 2 tcp 1040 ------- 1 0.0 3.0 13 21
+ 0.72368 0 2 tcp 1040 ------- 1 0.0 3.0 14 22
- 0.72368 0 2 tcp 1040 ------- 1 0.0 3.0 13 21
r 0.72536 0 2 tcp 1040 ------- 1 0.0 3.0 11 18
+ 0.72536 2 3 tcp 1040 ------- 1 0.0 3.0 11 18
- 0.726 2 3 tcp 1040 ------- 1 0.0 3.0 9 15
r 0.73 3 2 ack 40 ------- 1 3.0 0.0 7 20
+ 0.73 2 0 ack 40 ------- 1 3.0 0.0 7 20
- 0.73 2 0 ack 40 ------- 1 3.0 0.0 7 20
- 0.732 0 2 tcp 1040 ------- 1 0.0 3.0 14 22
r 0.73368 0 2 tcp 1040 ------- 1 0.0 3.0 12 19
+ 0.73368 2 3 tcp 1040 ------- 1 0.0 3.0 12 19
r 0.736 2 3 tcp 1040 ------- 1 0.0 3.0 8 13
+ 0.736 3 2 ack 40 ------- 1 3.0 0.0 8 23
- 0.736 3 2 ack 40 ------- 1 3.0 0.0 8 23
r 0.74032 2 0 ack 40 ------- 1 3.0 0.0 7 20
+ 0.74032 0 2 tcp 1040 ------- 1 0.0 3.0 15 24
+ 0.74032 0 2 tcp 1040 ------- 1 0.0 3.0 16 25
- 0.74032 0 2 tcp 1040 ------- 1 0.0 3.0 15 24
r 0.742 0 2 tcp 1040 ------- 1 0.0 3.0 13 21
+ 0.742 2 3 tcp 1040 ------- 1 0.0 3.0 13 21
- 0.74264 2 3 tcp 1040 ------- 1 0.0 3.0 10 16
r 0.74664 3 2 ack 40 ------- 1 3.0 0.0 8 23
+ 0.74664 2 0 ack 40 ------- 1 3.0 0.0 8 23
- 0.74664 2 0 ack 40 ------- 1 3.0 0.0 8 23
- 0.74864 0 2 tcp 1040 ------- 1 0.0 3.0 16 25
r 0.75032 0 2 tcp 1040 ------- 1 0.0 3.0 14 22
+ 0.75032 2 3 tcp 1040 ------- 1 0.0 3.0 14 22
r 0.75264 2 3 tcp 1040 ------- 1 0.0 3.0 9 15
+ 0.75264 3 2 ack 40 ------- 1 3.0 0.0 9 26
- 0.75264 3 2 ack 40 ------- 1 3.0 0.0 9 26
r 0.75696 2 0 ack 40 ------- 1 3.0 0.0 8 23
+ 0.75696 0 2 tcp 1040 ------- 1 0.0 3.0 17 27
+ 0.75696 0 2 tcp 1040 ------- 1 0.0 3.0 18 28
- 0.75696 0 2 tcp 1040 ------- 1 0.0 3.0 17 27
r 0.75864 0 2 tcp 1040 ------- 1 0.0 3.0 15 24
+ 0.75864 2 3 tcp 1040 ------- 1 0.0 3.0 15 24
- 0.75928 2 3 tcp 1040 ------- 1 0.0 3.0 11 18
r 0.76328 3 2 ack 40 ------- 1 3.0 0.0 9 26
+ 0.76328 2 0 ack 40 ------- 1 3.0 0.0 9 26
- 0.76328 2 0 ack 40 ------- 1 3.0 0.0 9 26
- 0.76528 0 2 tcp 1040 ------- 1 0.0 3.0 18 28
r 0.76696 0 2 tcp 1040 ------- 1 0.0 3.0 16 25
+ 0.76696 2 3 tcp 1040 ------- 1 0.0 3.0 16 25
r 0.76928 2 3 tcp 1040 ------- 1 0.0 3.0 10 16
+ 0.76928 3 2 ack 40 ------- 1 3.0 0.0 10 29
- 0.76928 3 2 ack 40 ------- 1 3.0 0.0 10 29
r 0.7736 2 0 ack 40 ------- 1 3.0 0.0 9 26
+ 0.7736 0 2 tcp 1040 ------- 1 0.0 3.0 19 30
+ 0.7736 0 2 tcp 1040 ------- 1 0.0 3.0 20 31
- 0.7736 0 2 tcp 1040 ------- 1 0.0 3.0 19 30
r 0.77528 0 2 tcp 1040 ------- 1 0.0 3.0 17 27
+ 0.77528 2 3 tcp 1040 ------- 1 0.0 3.0 17 27
- 0.77592 2 3 tcp 1040 ------- 1 0.0 3.0 12 19
r 0.77992 3 2 ack 40 ------- 1 3.0 0.0 10 29
+ 0.77992 2 0 ack 40 ------- 1 3.0 0.0 10 29
- 0.77992 2 0 ack 40 ------- 1 3.0 0.0 10 29
- 0.78192 0 2 tcp 1040 ------- 1 0.0 3.0 20 31
r 0.7836 0 2 tcp 1040 ------- 1 0.0 3.0 18 28
+ 0.7836 2 3 tcp 1040 ------- 1 0.0 3.0 18 28
r 0.78592 2 3 tcp 1040 ------- 1 0.0 3.0 11 18
+ 0.78592 3 2 ack 40 ------- 1 3.0 0.0 11 32
- 0.78592 3 2 ack 40 ------- 1 3.0 0.0 11 32
r 0.79024 2 0 ack 40 ------- 1 3.0 0.0 10 29
+ 0.79024 0 2 tcp 1040 ------- 1 0.0 3.0 21 33
+ 0.79024 0 2 tcp 1040 ------- 1 0.0 3.0 22 34
- 0.79024 0 2 tcp 1040 ------- 1 0.0 3.0 21 33
r 0.79192 0 2 tcp 1040 ------- 1 0.0 3.0 19 30
+ 0.79192 2 3 tcp 1040 ------- 1 0.0 3.0 19 30
- 0.79256 2 3 tcp 1040 ------- 1 0.0 3.0 13 21
r 0.79656 3 2 ack 40 ------- 1 3.0 0.0 11 32
+ 0.79656 2 0 ack 40 ------- 1 3.0 0.0 11 32
- 0.79656 2 0 ack 40 ------- 1 3.0 0.0 11 32
- 0.79856 0 2 tcp 1040 ------- 1 0.0 3.0 22 34
r 0.80024 0 2 tcp 1040 ------- 1 0.0 3.0 20 31
+ 0.80024 2 3 tcp 1040 ------- 1 0.0 3.0 20 31
r 0.80256 2 3 tcp 1040 ------- 1 0.0 3.0 12 19
+ 0.80256 3 2 ack 40 ------- 1 3.0 0.0 12 35
- 0.80256 3 2 ack 40 ------- 1 3.0 0.0 12 35
r 0.80688 2 0 ack 40 ------- 1 3.0 0.0 11 32
+ 0.80688 0 2 tcp 1040 ------- 1 0.0 3.0 23 36
+ 0.80688 0 2 tcp 1040 ------- 1 0.0 3.0 24 37
- 0.80688 0 2 tcp 1040 ------- 1 0.0 3.0 23 36
r 0.80856 0 2 tcp 1040 ------- 1 0.0 3.0 21 33
+ 0.80856 2 3 tcp 1040 ------- 1 0.0 3.0 21 33
- 0.8092 2 3 tcp 1040 ------- 1 0.0 3.0 14 22
r 0.8132 3 2 ack 40 ------- 1 3.0 0.0 12 35
+ 0.8132 2 0 ack 40 ------- 1 3.0 0.0 12 35
- 0.8132 2 0 ack 40 ------- 1 3.0 0.0 12 35
- 0.8152 0 2 tcp 1040 ------- 1 0.0 3.0 24 37
r 0.81688 0 2 tcp 1040 ------- 1 0.0 3.0 22 34
+ 0.81688 2 3 tcp 1040 ------- 1 0.0 3.0 22 34
r 0.8192 2 3 tcp 1040 ------- 1 0.0 3.0 13 21
+ 0.8192 3 2 ack 40 ------- 1 3.0 0.0 13 38
- 0.8192 3 2 ack 40 ------- 1 3.0 0.0 13 38
r 0.82352 2 0 ack 40 ------- 1 3.0 0.0 12 35
+ 0.82352 0 2 tcp 1040 ------- 1 0.0 3.0 25 39
+ 0.82352 0 2 tcp 1040 ------- 1 0.0 3.0 26 40
- 0.82352 0 2 tcp 1040 ------- 1 0.0 3.0 25 39
r 0.8252 0 2 tcp 1040 ------- 1 0.0 3.0 23 36
+ 0.8252 2 3 tcp 1040 ------- 1 0.0 3.0 23 36
- 0.82584 2 3 tcp 1040 ------- 1 0.0 3.0 15 24
r 0.82984 3 2 ack 40 ------- 1 3.0 0.0 13 38
+ 0.82984 2 0 ack 40 ------- 1 3.0 0.0 13 38
- 0.82984 2 0 ack 40 ------- 1 3.0 0.0 13 38
- 0.83184 0 2 tcp 1040 ------- 1 0.0 3.0 26 40
r 0.83352 0 2 tcp 1040 ------- 1 0.0 3.0 24 37
+ 0.83352 2 3 tcp 1040 ------- 1 0.0 3.0 24 37
r 0.83584 2 3 tcp 1040 ------- 1 0.0 3.0 14 22
+ 0.83584 3 2 ack 40 ------- 1 3.0 0.0 14 41
- 0.83584 3 2 ack 40 ------- 1 3.0 0.0 14 41
r 0.84016 2 0 ack 40 ------- 1 3.0 0.0 13 38
+ 0.84016 0 2 tcp 1040 ------- 1 0.0 3.0 27 42
+ 0.84016 0 2 tcp 1040 ------- 1 0.0 3.0 28 43
- 0.84016 0 2 tcp 1040 ------- 1 0.0 3.0 27 42
r 0.84184 0 2 tcp 1040 ------- 1 0.0 3.0 25 39
+ 0.84184 2 3 tcp 1040 ------- 1 0.0 3.0 25 39
- 0.84248 2 3 tcp 1040 ------- 1 0.0 3.0 16 25
r 0.84648 3 2 ack 40 ------- 1 3.0 0.0 14 41
+ 0.84648 2 0 ack 40 ------- 1 3.0 0.0 14 41
- 0.84648 2 0 ack 40 ------- 1 3.0 0.0 14 41
- 0.84848 0 2 tcp 1040 ------- 1 0.0 3.0 28 43
r 0.85016 0 2 tcp 1040 ------- 1 0.0 3.0 26 40
+ 0.85016 2 3 tcp 1040 ------- 1 0.0 3.0 26 40
r 0.85248 2 3 tcp 1040 ------- 1 0.0 3.0 15 24
+ 0.85248 3 2 ack 40 ------- 1 3.0 0.0 15 44
- 0.85248 3 2 ack 40 ------- 1 3.0 0.0 15 44
r 0.8568 2 0 ack 40 ------- 1 3.0 0.0 14 41
+ 0.8568 0 2 tcp 1040 ------- 1 0.0 3.0 29 45
+ 0.8568 0 2 tcp 1040 ------- 1 0.0 3.0 30 46
- 0.8568 0 2 tcp 1040 ------- 1 0.0 3.0 29 45
r 0.85848 0 2 tcp 1040 ------- 1 0.0 3.0 27 42
+ 0.85848 2 3 tcp 1040 ------- 1 0.0 3.0 27 42
- 0.85912 2 3 tcp 1040 ------- 1 0.0 3.0 17 27
r 0.86312 3 2 ack 40 ------- 1 3.0 0.0 15 44
+ 0.86312 2 0 ack 40 ------- 1 3.0 0.0 15 44
- 0.86312 2 0 ack 40 ------- 1 3.0 0.0 15 44
- 0.86512 0 2 tcp 1040 ------- 1 0.0 3.0 30 46
r 0.8668 0 2 tcp 1040 ------- 1 0.0 3.0 28 43
+ 0.8668 2 3 tcp 1040 ------- 1 0.0 3.0 28 43
r 0.86912 2 3 tcp 1040 ------- 1 0.0 3.0 16 25
+ 0.86912 3 2 ack 40 ------- 1 3.0 0.0 16 47
- 0.86912 3 2 ack 40 ------- 1 3.0 0.0 16 47
r 0.87344 2 0 ack 40 ------- 1 3.0 0.0 15 44
+ 0.87344 0 2 tcp 1040 ------- 1 0.0 3.0 31 48
+ 0.87344 0 2 tcp 1040 ------- 1 0.0 3.0 32 49
- 0.87344 0 2 tcp 1040 ------- 1 0.0 3.0 31 48
r 0.87512 0 2 tcp 1040 ------- 1 0.0 3.0 29 45
+ 0.87512 2 3 tcp 1040 ------- 1 0.0 3.0 29 45
- 0.87576 2 3 tcp 1040 ------- 1 0.0 3.0 18 28
r 0.87976 3 2 ack 40 ------- 1 3.0 0.0 16 47
+ 0.87976 2 0 ack 40 ------- 1 3.0 0.0 16 47
- 0.87976 2 0 ack 40 ------- 1 3.0 0.0 16 47
- 0.88176 0 2 tcp 1040 ------- 1 0.0 3.0 32 49
r 0.88344 0 2 tcp 1040 ------- 1 0.0 3.0 30 46
+ 0.88344 2 3 tcp 1040 ------- 1 0.0 3.0 30 46
r 0.88576 2 3 tcp 1040 ------- 1 0.0 3.0 17 27
+ 0.88576 3 2 ack 40 ------- 1 3.0 0.0 17 50
- 0.88576 3 2 ack 40 ------- 1 3.0 0.0 17 50
r 0.89008 2 0 ack 40 ------- 1 3.0 0.0 16 47
+ 0.89008 0 2 tcp 1040 ------- 1 0.0 3.0 33 51
+ 0.89008 0 2 tcp 1040 ------- 1 0.0 3.0 34 52
- 0.89008 0 2 tcp 1040 ------- 1 0.0 3.0 33 51
r 0.89176 0 2 tcp 1040 ------- 1 0.0 3.0 31 48
+ 0.89176 2 3 tcp 1040 ------- 1 0.0 3.0 31 48
- 0.8924 2 3 tcp 1040 ------- 1 0.0 3.0 19 30
r 0.8964 3 2 ack 40 ------- 1 3.0 0.0 17 50
+ 0.8964 2 0 ack 40 ------- 1 3.0 0.0 17 50
- 0.8964 2 0 ack 40 ------- 1 3.0 0.0 17 50
- 0.8984 0 2 tcp 1040 ------- 1 0.0 3.0 34 52
r 0.90008 0 2 tcp 1040 ------- 1 0.0 3.0 32 49
+ 0.90008 2 3 tcp 1040 ------- 1 0.0 3.0 32 49
r 0.9024 2 3 tcp 1040 ------- 1 0.0 3.0 18 28
+ 0.9024 3 2 ack 40 ------- 1 3.0 0.0 18 53
- 0.9024 3 2 ack 40 ------- 1 3.0 0.0 18 53
r 0.90672 2 0 ack 40 ------- 1 3.0 0.0 17 50
+ 0.90672 0 2 tcp 1040 ------- 1 0.0 3.0 35 54
+ 0.90672 0 2 tcp 1040 ------- 1 0.0 3.0 36 55
- 0.90672 0 2 tcp 1040 ------- 1 0.0 3.0 35 54
r 0.9084 0 2 tcp 1040 ------- 1 0.0 3.0 33 51
+ 0.9084 2 3 tcp 1040 ------- 1 0.0 3.0 33 51
- 0.90904 2 3 tcp 1040 ------- 1 0.0 3.0 20 31
r 0.91304 3 2 ack 40 ------- 1 3.0 0.0 18 53
+ 0.91304 2 0 ack 40 ------- 1 3.0 0.0 18 53
- 0.91304 2 0 ack 40 ------- 1 3.0 0.0 18 53
- 0.91504 0 2 tcp 1040 ------- 1 0.0 3.0 36 55
r 0.91672 0 2 tcp 1040 ------- 1 0.0 3.0 34 52
+ 0.91672 2 3 tcp 1040 ------- 1 0.0 3.0 34 52
r 0.91904 2 3 tcp 1040 ------- 1 0.0 3.0 19 30
+ 0.91904 3 2 ack 40 ------- 1 3.0 0.0 19 56
- 0.91904 3 2 ack 40 ------- 1 3.0 0.0 19 56
r 0.92336 2 0 ack 40 ------- 1 3.0 0.0 18 53
+ 0.92336 0 2 tcp 1040 ------- 1 0.0 3.0 37 57
+ 0.92336 0 2 tcp 1040 ------- 1 0.0 3.0 38 58
- 0.92336 0 2 tcp 1040 ------- 1 0.0 3.0 37 57
r 0.92504 0 2 tcp 1040 ------- 1 0.0 3.0 35 54
+ 0.92504 2 3 tcp 1040 ------- 1 0.0 3.0 35 54
- 0.92568 2 3 tcp 1040 ------- 1 0.0 3.0 21 33
r 0.92968 3 2 ack 40 ------- 1 3.0 0.0 19 56
+ 0.92968 2 0 ack 40 ------- 1 3.0 0.0 19 56
- 0.92968 2 0 ack 40 ------- 1 3.0 0.0 19 56
- 0.93168 0 2 tcp 1040 ------- 1 0.0 3.0 38 58
r 0.93336 0 2 tcp 1040 ------- 1 0.0 3.0 36 55
+ 0.93336 2 3 tcp 1040 ------- 1 0.0 3.0 36 55
r 0.93568 2 3 tcp 1040 ------- 1 0.0 3.0 20 31
+ 0.93568 3 2 ack 40 ------- 1 3.0 0.0 20 59
- 0.93568 3 2 ack 40 ------- 1 3.0 0.0 20 59
r 0.94 2 0 ack 40 ------- 1 3.0 0.0 19 56
+ 0.94 0 2 tcp 1040 ------- 1 0.0 3.0 39 60
- 0.94 0 2 tcp 1040 ------- 1 0.0 3.0 39 60
r 0.94168 0 2 tcp 1040 ------- 1 0.0 3.0 37 57
+ 0.94168 2 3 tcp 1040 ------- 1 0.0 3.0 37 57
- 0.94232 2 3 tcp 1040 ------- 1 0.0 3.0 22 34
r 0.94632 3 2 ack 40 ------- 1 3.0 0.0 20 59
+ 0.94632 2 0 ack 40 ------- 1 3.0 0.0 20 59
- 0.94632 2 0 ack 40 ------- 1 3.0 0.0 20 59
r 0.95 0 2 tcp 1040 ------- 1 0.0 3.0 38 58
+ 0.95 2 3 tcp 1040 ------- 1 0.0 3.0 38 58
r 0.95232 2 3 tcp 1040 ------- 1 0.0 3.0 21 33
+ 0.95232 3 2 ack 40 ------- 1 3.0 0.0 21 61
- 0.95232 3 2 ack 40 ------- 1 3.0 0.0 21 61
r 0.95664 2 0 ack 40 ------- 1 3.0 0.0 20 59
+ 0.95664 0 2 tcp 1040 ------- 1 0.0 3.0 40 62
- 0.95664 0 2 tcp 1040 ------- 1 0.0 3.0 40 62
r 0.95832 0 2 tcp 1040 ------- 1 0.0 3.0 39 60
+ 0.95832 2 3 tcp 1040 ------- 1 0.0 3.0 39 60
- 0.95896 2 3 tcp 1040 ------- 1 0.0 3.0 23 36
r 0.96296 3 2 ack 40 ------- 1 3.0 0.0 21 61
+ 0.96296 2 0 ack 40 ------- 1 3.0 0.0 21 61
- 0.96296 2 0 ack 40 ------- 1 3.0 0.0 21 61
r 0.96896 2 3 tcp 1040 ------- 1 0.0 3.0 22 34
+ 0.96896 3 2 ack 40 ------- 1 3.0 0.0 22 63
- 0.96896 3 2 ack 40 ------- 1 3.0 0.0 22 63
r 0.97328 2 0 ack 40 ------- 1 3.0 0.0 21 61
+ 0.97328 0 2 tcp 1040 ------- 1 0.0 3.0 41 64
- 0.97328 0 2 tcp 1040 ------- 1 0.0 3.0 41 64
r 0.97496 0 2 tcp 1040 ------- 1 0.0 3.0 40 62
+ 0.97496 2 3 tcp 1040 ------- 1 0.0 3.0 40 62
- 0.9756 2 3 tcp 1040 ------- 1 0.0 3.0 24 37
r 0.9796 3 2 ack 40 ------- 1 3.0 0.0 22 63
+ 0.9796 2 0 ack 40 ------- 1 3.0 0.0 22 63
- 0.9796 2 0 ack 40 ------- 1 3.0 0.0 22 63
r 0.9856 2 3 tcp 1040 ------- 1 0.0 3.0 23 36
+ 0.9856 3 2 ack 40 ------- 1 3.0 0.0 23 65
- 0.9856 3 2 ack 40 ------- 1 3.0 0.0 23 65
r 0.98992 2 0 ack 40 ------- 1 3.0 0.0 22 63
+ 0.98992 0 2 tcp 1040 ------- 1 0.0 3.0 42 66
- 0.98992 0 2 tcp 1040 ------- 1 0.0 3.0 42 66
r 0.9916 0 2 tcp 1040 ------- 1 0.0 3.0 41 64
+ 0.9916 2 3 tcp 1040 ------- 1 0.0 3.0 41 64
- 0.99224 2 3 tcp 1040 ------- 1 0.0 3.0 25 39
r 0.99624 3 2 ack 40 ------- 1 3.0 0.0 23 65
+ 0.99624 2 0 ack 40 ------- 1 3.0 0.0 23 65
- 0.99624 2 0 ack 40 ------- 1 3.0 0.0 23 65
r 1.00224 2 3 tcp 1040 ------- 1 0.0 3.0 24 37
+ 1.00224 3 2 ack 40 ------- 1 3.0 0.0 24 67
- 1.00224 3 2 ack 40 ------- 1 3.0 0.0 24 67
r 1.00656 2 0 ack 40 ------- 1 3.0 0.0 23 65
+ 1.00656 0 2 tcp 1040 ------- 1 0.0 3.0 43 68
- 1.00656 0 2 tcp 1040 ------- 1 0.0 3.0 43 68
r 1.00824 0 2 tcp 1040 ------- 1 0.0 3.0 42 66
+ 1.00824 2 3 tcp 1040 ------- 1 0.0 3.0 42 66
- 1.00888 2 3 tcp 1040 ------- 1 0.0 3.0 26 40
r 1.01288 3 2 ack 40 ------- 1 3.0 0.0 24 67
+ 1.01288 2 0 ack 40 ------- 1 3.0 0.0 24 67
- 1.01288 2 0 ack 40 ------- 1 3.0 0.0 24 67
r 1.01888 2 3 tcp 1040 ------- 1 0.0 3.0 25 39
+ 1.01888 3 2 ack 40 ------- 1 3.0 0.0 25 69
- 1.01888 3 2 ack 40 ------- 1 3.0 0.0 25 69
r 1.0232 2 0 ack 40 ------- 1 3.0 0.0 24 67
+ 1.0232 0 2 tcp 1040 ------- 1 0.0 3.0 44 70
- 1.0232 0 2 tcp 1040 ------- 1 0.0 3.0 44 70
r 1.02488 0 2 tcp 1040 ------- 1 0.0 3.0 43 68
+ 1.02488 2 3 tcp 1040 ------- 1 0.0 3.0 43 68
- 1.02552 2 3 tcp 1040 ------- 1 0.0 3.0 27 42
r 1.02952 3 2 ack 40 ------- 1 3.0 0.0 25 69
+ 1.02952 2 0 ack 40 ------- 1 3.0 0.0 25 69
- 1.02952 2 0 ack 40 ------- 1 3.0 0.0 25 69
r 1.03552 2 3 tcp 1040 ------- 1 0.0 3.0 26 40
+ 1.03552 3 2 ack 40 ------- 1 3.0 0.0 26 71
- 1.03552 3 2 ack 40 ------- 1 3.0 0.0 26 71
r 1.03984 2 0 ack 40 ------- 1 3.0 0.0 25 69
+ 1.03984 0 2 tcp 1040 ------- 1 0.0 3.0 45 72
- 1.03984 0 2 tcp 1040 ------- 1 0.0 3.0 45 72
r 1.04152 0 2 tcp 1040 ------- 1 0.0 3.0 44 70
+ 1.04152 2 3 tcp 1040 ------- 1 0.0 3.0 44 70
- 1.04216 2 3 tcp 1040 ------- 1 0.0 3.0 28 43
r 1.04616 3 2 ack 40 ------- 1 3.0 0.0 26 71
+ 1.04616 2 0 ack 40 ------- 1 3.0 0.0 26 71
- 1.04616 2 0 ack 40 ------- 1 3.0 0.0 26 71
r 1.05216 2 3 tcp 1040 ------- 1 0.0 3.0 27 42
+ 1.05216 3 2 ack 40 ------- 1 3.0 0.0 27 73
- 1.05216 3 2 ack 40 ------- 1 3.0 0.0 27 73
r 1.05648 2 0 ack 40 ------- 1 3.0 0.0 26 71
+ 1.05648 0 2 tcp 1040 ------- 1 0.0 3.0 46 74
- 1.05648 0 2 tcp 1040 ------- 1 0.0 3.0 46 74
r 1.05816 0 2 tcp 1040 ------- 1 0.0 3.0 45 72
+ 1.05816 2 3 tcp 1040 ------- 1 0.0 3.0 45 72
- 1.0588 2 3 tcp 1040 ------- 1 0.0 3.0 29 45
r 1.0628 3 2 ack 40 ------- 1 3.0 0.0 27 73
+ 1.0628 2 0 ack 40 ------- 1 3.0 0.0 27 73
- 1.0628 2 0 ack 40 ------- 1 3.0 0.0 27 73
r 1.0688 2 3 tcp 1040 ------- 1 0.0 3.0 28 43
+ 1.0688 3 2 ack 40 ------- 1 3.0 0.0 28 75
- 1.0688 3 2 ack 40 ------- 1 3.0 0.0 28 75
r 1.07312 2 0 ack 40 ------- 1 3.0 0.0 27 73
+ 1.07312 0 2 tcp 1040 ------- 1 0.0 3.0 47 76
- 1.07312 0 2 tcp 1040 ------- 1 0.0 3.0 47 76
r 1.0748 0 2 tcp 1040 ------- 1 0.0 3.0 46 74
+ 1.0748 2 3 tcp 1040 ------- 1 0.0 3.0 46 74
- 1.07544 2 3 tcp 1040 ------- 1 0.0 3.0 30 46
r 1.07944 3 2 ack 40 ------- 1 3.0 0.0 28 75
+ 1.07944 2 0 ack 40 ------- 1 3.0 0.0 28 75
- 1.07944 2 0 ack 40 ------- 1 3.0 0.0 28 75
r 1.08544 2 3 tcp 1040 ------- 1 0.0 3.0 29 45
+ 1.08544 3 2 ack 40 ------- 1 3.0 0.0 29 77
- 1.08544 3 2 ack 40 ------- 1 3.0 0.0 29 77
r 1.08976 2 0 ack 40 ------- 1 3.0 0.0 28 75
+ 1.08976 0 2 tcp 1040 ------- 1 0.0 3.0 48 78
- 1.08976 0 2 tcp 1040 ------- 1 0.0 3.0 48 78
r 1.09144 0 2 tcp 1040 ------- 1 0.0 3.0 47 76
+ 1.09144 2 3 tcp 1040 ------- 1 0.0 3.0 47 76
- 1.09208 2 3 tcp 1040 ------- 1 0.0 3.0 31 48
r 1.09608 3 2 ack 40 ------- 1 3.0 0.0 29 77
+ 1.09608 2 0 ack 40 ------- 1 3.0 0.0 29 77
- 1.09608 2 0 ack 40 ------- 1 3.0 0.0 29 77
r 1.10208 2 3 tcp 1040 ------- 1 0.0 3.0 30 46
+ 1.10208 3 2 ack 40 ------- 1 3.0 0.0 30 79
- 1.10208 3 2 ack 40 ------- 1 3.0 0.0 30 79
r 1.1064 2 0 ack 40 ------- 1 3.0 0.0 29 77
+ 1.1064 0 2 tcp 1040 ------- 1 0.0 3.0 49 80
- 1.1064 0 2 tcp 1040 ------- 1 0.0 3.0 49 80
r 1.10808 0 2 tcp 1040 ------- 1 0.0 3.0 48 78
+ 1.10808 2 3 tcp 1040 ------- 1 0.0 3.0 48 78
- 1.10872 2 3 tcp 1040 ------- 1 0.0 3.0 32 49
r 1.11272 3 2 ack 40 ------- 1 3.0 0.0 30 79
+ 1.11272 2 0 ack 40 ------- 1 3.0 0.0 30 79
- 1.11272 2 0 ack 40 ------- 1 3.0 0.0 30 79
r 1.11872 2 3 tcp 1040 ------- 1 0.0 3.0 31 48
+ 1.11872 3 2 ack 40 ------- 1 3.0 0.0 31 81
- 1.11872 3 2 ack 40 ------- 1 3.0 0.0 31 81
r 1.12304 2 0 ack 40 ------- 1 3.0 0.0 30 79
+ 1.12304 0 2 tcp 1040 ------- 1 0.0 3.0 50 82
- 1.12304 0 2 tcp 1040 ------- 1 0.0 3.0 50 82
r 1.12472 0 2 tcp 1040 ------- 1 0.0 3.0 49 80
+ 1.12472 2 3 tcp 1040 ------- 1 0.0 3.0 49 80
- 1.12536 2 3 tcp 1040 ------- 1 0.0 3.0 33 51
r 1.12936 3 2 ack 40 ------- 1 3.0 0.0 31 81
+ 1.12936 2 0 ack 40 ------- 1 3.0 0.0 31 81
- 1.12936 2 0 ack 40 ------- 1 3.0 0.0 31 81
r 1.13536 2 3 tcp 1040 ------- 1 0.0 3.0 32 49
+ 1.13536 3 2 ack 40 ------- 1 3.0 0.0 32 83
- 1.13536 3 2 ack 40 ------- 1 3.0 0.0 32 83
r 1.13968 2 0 ack 40 ------- 1 3.0 0.0 31 81
+ 1.13968 0 2 tcp 1040 ------- 1 0.0 3.0 51 84
- 1.13968 0 2 tcp 1040 ------- 1 0.0 3.0 51 84
r 1.14136 0 2 tcp 1040 ------- 1 0.0 3.0 50 82
+ 1.14136 2 3 tcp 1040 ------- 1 0.0 3.0 50 82
- 1.142 2 3 tcp 1040 ------- 1 0.0 3.0 34 52
r 1.146 3 2 ack 40 ------- 1 3.0 0.0 32 83
+ 1.146 2 0 ack 40 ------- 1 3.0 0.0 32 83
- 1.146 2 0 ack 40 ------- 1 3.0 0.0 32 83
r 1.152 2 3 tcp 1040 ------- 1 0.0 3.0 33 51
+ 1.152 3 2 ack 40 ------- 1 3.0 0.0 33 85
- 1.152 3 2 ack 40 ------- 1 3.0 0.0 33 85
r 1.15632 2 0 ack 40 ------- 1 3.0 0.0 32 83
+ 1.15632 0 2 tcp 1040 ------- 1 0.0 3.0 52 86
- 1.15632 0 2 tcp 1040 ------- 1 0.0 3.0 52 86
r 1.158 0 2 tcp 1040 ------- 1 0.0 3.0 51 84
+ 1.158 2 3 tcp 1040 ------- 1 0.0 3.0 51 84
- 1.15864 2 3 tcp 1040 ------- 1 0.0 3.0 35 54
r 1.16264 3 2 ack 40 ------- 1 3.0 0.0 33 85
+ 1.16264 2 0 ack 40 ------- 1 3.0 0.0 33 85
- 1.16264 2 0 ack 40 ------- 1 3.0 0.0 33 85
r 1.16864 2 3 tcp 1040 ------- 1 0.0 3.0 34 52
+ 1.16864 3 2 ack 40 ------- 1 3.0 0.0 34 87
- 1.16864 3 2 ack 40 ------- 1 3.0 0.0 34 87
r 1.17296 2 0 ack 40 ------- 1 3.0 0.0 33 85
+ 1.17296 0 2 tcp 1040 ------- 1 0.0 3.0 53 88
- 1.17296 0 2 tcp 1040 ------- 1 0.0 3.0 53 88
r 1.17464 0 2 tcp 1040 ------- 1 0.0 3.0 52 86
+ 1.17464 2 3 tcp 1040 ------- 1 0.0 3.0 52 86
- 1.17528 2 3 tcp 1040 ------- 1 0.0 3.0 36 55
r 1.17928 3 2 ack 40 ------- 1 3.0 0.0 34 87
+ 1.17928 2 0 ack 40 ------- 1 3.0 0.0 34 87
- 1.17928 2 0 ack 40 ------- 1 3.0 0.0 34 87
r 1.18528 2 3 tcp 1040 ------- 1 0.0 3.0 35 54
+ 1.18528 3 2 ack 40 ------- 1 3.0 0.0 35 89
- 1.18528 3 2 ack 40 ------- 1 3.0 0.0 35 89
r 1.1896 2 0 ack 40 ------- 1 3.0 0.0 34 87
+ 1.1896 0 2 tcp 1040 ------- 1 0.0 3.0 54 90
- 1.1896 0 2 tcp 1040 ------- 1 0.0 3.0 54 90
r 1.19128 0 2 tcp 1040 ------- 1 0.0 3.0 53 88
+ 1.19128 2 3 tcp 1040 ------- 1 0.0 3.0 53 88
- 1.19192 2 3 tcp 1040 ------- 1 0.0 3.0 37 57
r 1.19592 3 2 ack 40 ------- 1 3.0 0.0 35 89
+ 1.19592 2 0 ack 40 ------- 1 3.0 0.0 35 89
- 1.19592 2 0 ack 40 ------- 1 3.0 0.0 35 89
r 1.20192 2 3 tcp 1040 ------- 1 0.0 3.0 36 55
+ 1.20192 3 2 ack 40 ------- 1 3.0 0.0 36 91
- 1.20192 3 2 ack 40 ------- 1 3.0 0.0 36 91
r 1.20624 2 0 ack 40 ------- 1 3.0 0.0 35 89
+ 1.20624 0 2 tcp 1040 ------- 1 0.0 3.0 55 92
- 1.20624 0 2 tcp 1040 ------- 1 0.0 3.0 55 92
r 1.20792 0 2 tcp 1040 ------- 1 0.0 3.0 54 90
+ 1.20792 2 3 tcp 1040 ------- 1 0.0 3.0 54 90
- 1.20856 2 3 tcp 1040 ------- 1 0.0 3.0 38 58
r 1.21256 3 2 ack 40 ------- 1 3.0 0.0 36 91
+ 1.21256 2 0 ack 40 ------- 1 3.0 0.0 36 91
- 1.21256 2 0 ack 40 ------- 1 3.0 0.0 36 91
r 1.21856 2 3 tcp 1040 ------- 1 0.0 3.0 37 57
+ 1.21856 3 2 ack 40 ------- 1 3.0 0.0 37 93
- 1.21856 3 2 ack 40 ------- 1 3.0 0.0 37 93
r 1.22288 2 0 ack 40 ------- 1 3.0 0.0 36 91
+ 1.22288 0 2 tcp 1040 ------- 1 0.0 3.0 56 94
- 1.22288 0 2 tcp 1040 ------- 1 0.0 3.0 56 94
r 1.22456 0 2 tcp 1040 ------- 1 0.0 3.0 55 92
+ 1.22456 2 3 tcp 1040 ------- 1 0.0 3.0 55 92
- 1.2252 2 3 tcp 1040 ------- 1 0.0 3.0 39 60
r 1.2292 3 2 ack 40 ------- 1 3.0 0.0 37 93
+ 1.2292 2 0 ack 40 ------- 1 3.0 0.0 37 93
- 1.2292 2 0 ack 40 ------- 1 3.0 0.0 37 93
r 1.2352 2 3 tcp 1040 ------- 1 0.0 3.0 38 58
+ 1.2352 3 2 ack 40 ------- 1 3.0 0.0 38 95
- 1.2352 3 2 ack 40 ------- 1 3.0 0.0 38 95
r 1.23952 2 0 ack 40 ------- 1 3.0 0.0 37 93
+ 1.23952 0 2 tcp 1040 ------- 1 0.0 3.0 57 96
- 1.23952 0 2 tcp 1040 ------- 1 0.0 3.0 57 96
r 1.2412 0 2 tcp 1040 ------- 1 0.0 3.0 56 94
+ 1.2412 2 3 tcp 1040 ------- 1 0.0 3.0 56 94
- 1.24184 2 3 tcp 1040 ------- 1 0.0 3.0 40 62
r 1.24584 3 2 ack 40 ------- 1 3.0 0.0 38 95
+ 1.24584 2 0 ack 40 ------- 1 3.0 0.0 38 95
- 1.24584 2 0 ack 40 ------- 1 3.0 0.0 38 95
r 1.25184 2 3 tcp 1040 ------- 1 0.0 3.0 39 60
+ 1.25184 3 2 ack 40 ------- 1 3.0 0.0 39 97
- 1.25184 3 2 ack 40 ------- 1 3.0 0.0 39 97
r 1.25616 2 0 ack 40 ------- 1 3.0 0.0 38 95
+ 1.25616 0 2 tcp 1040 ------- 1 0.0 3.0 58 98
- 1.25616 0 2 tcp 1040 ------- 1 0.0 3.0 58 98
r 1.25784 0 2 tcp 1040 ------- 1 0.0 3.0 57 96
+ 1.25784 2 3 tcp 1040 ------- 1 0.0 3.0 57 96
- 1.25848 2 3 tcp 1040 ------- 1 0.0 3.0 41 64
r 1.26248 3 2 ack 40 ------- 1 3.0 0.0 39 97
+ 1.26248 2 0 ack 40 ------- 1 3.0 0.0 39 97
- 1.26248 2 0 ack 40 ------- 1 3.0 0.0 39 97
r 1.26848 2 3 tcp 1040 ------- 1 0.0 3.0 40 62
+ 1.26848 3 2 ack 40 ------- 1 3.0 0.0 40 99
- 1.26848 3 2 ack 40 ------- 1 3.0 0.0 40 99
r 1.2728 2 0 ack 40 ------- 1 3.0 0.0 39 97
+ 1.2728 0 2 tcp 1040 ------- 1 0.0 3.0 59 100
- 1.2728 0 2 tcp 1040 ------- 1 0.0 3.0 59 100
r 1.27448 0 2 tcp 1040 ------- 1 0.0 3.0 58 98
+ 1.27448 2 3 tcp 1040 ------- 1 0.0 3.0 58 98
- 1.27512 2 3 tcp 1040 ------- 1 0.0 3.0 42 66
r 1.27912 3 2 ack 40 ------- 1 3.0 0.0 40 99
+ 1.27912 2 0 ack 40 ------- 1 3.0 0.0 40 99
- 1.27912 2 0 ack 40 ------- 1 3.0 0.0 40 99
r 1.28512 2 3 tcp 1040 ------- 1 0.0 3.0 41 64
+ 1.28512 3 2 ack 40 ------- 1 3.0 0.0 41 101
- 1.28512 3 2 ack 40 ------- 1 3.0 0.0 41 101
r 1.28944 2 0 ack 40 ------- 1 3.0 0.0 40 99
+ 1.28944 0 2 tcp 1040 ------- 1 0.0 3.0 60 102
- 1.28944 0 2 tcp 1040 ------- 1 0.0 3.0 60 102
r 1.29112 0 2 tcp 1040 ------- 1 0.0 3.0 59 100
+ 1.29112 2 3 tcp 1040 ------- 1 0.0 3.0 59 100
- 1.29176 2 3 tcp 1040 ------- 1 0.0 3.0 43 68
r 1.29576 3 2 ack 40 ------- 1 3.0 0.0 41 101
+ 1.29576 2 0 ack 40 ------- 1 3.0 0.0 41 101
- 1.29576 2 0 ack 40 ------- 1 3.0 0.0 41 101
r 1.30176 2 3 tcp 1040 ------- 1 0.0 3.0 42 66
+ 1.30176 3 2 ack 40 ------- 1 3.0 0.0 42 103
- 1.30176 3 2 ack 40 ------- 1 3.0 0.0 42 103
r 1.30608 2 0 ack 40 ------- 1 3.0 0.0 41 101
+ 1.30608 0 2 tcp 1040 ------- 1 0.0 3.0 61 104
- 1.30608 0 2 tcp 1040 ------- 1 0.0 3.0 61 104
r 1.30776 0 2 tcp 1040 ------- 1 0.0 3.0 60 102
+ 1.30776 2 3 tcp 1040 ------- 1 0.0 3.0 60 102
- 1.3084 2 3 tcp 1040 ------- 1 0.0 3.0 44 70
r 1.3124 3 2 ack 40 ------- 1 3.0 0.0 42 103
+ 1.3124 2 0 ack 40 ------- 1 3.0 0.0 42 103
- 1.3124 2 0 ack 40 ------- 1 3.0 0.0 42 103
+ 1.318317 1 2 tcp 40 ------- 2 1.0 3.1 0 105
- 1.318317 1 2 tcp 40 ------- 2 1.0 3.1 0 105
r 1.3184 2 3 tcp 1040 ------- 1 0.0 3.0 43 68
+ 1.3184 3 2 ack 40 ------- 1 3.0 0.0 43 106
- 1.3184 3 2 ack 40 ------- 1 3.0 0.0 43 106
r 1.32272 2 0 ack 40 ------- 1 3.0 0.0 42 103
+ 1.32272 0 2 tcp 1040 ------- 1 0.0 3.0 62 107
- 1.32272 0 2 tcp 1040 ------- 1 0.0 3.0 62 107
r 1.3244 0 2 tcp 1040 ------- 1 0.0 3.0 61 104
+ 1.3244 2 3 tcp 1040 ------- 1 0.0 3.0 61 104
- 1.32504 2 3 tcp 1040 ------- 1 0.0 3.0 45 72
r 1.328637 1 2 tcp 40 ------- 2 1.0 3.1 0 105
+ 1.328637 2 3 tcp 40 ------- 2 1.0 3.1 0 105
r 1.32904 3 2 ack 40 ------- 1 3.0 0.0 43 106
+ 1.32904 2 0 ack 40 ------- 1 3.0 0.0 43 106
- 1.32904 2 0 ack 40 ------- 1 3.0 0.0 43 106
r 1.33504 2 3 tcp 1040 ------- 1 0.0 3.0 44 70
+ 1.33504 3 2 ack 40 ------- 1 3.0 0.0 44 108
- 1.33504 3 2 ack 40 ------- 1 3.0 0.0 44 108
r 1.33936 2 0 ack 40 ------- 1 3.0 0.0 43 106
+ 1.33936 0 2 tcp 1040 ------- 1 0.0 3.0 63 109
- 1.33936 0 2 tcp 1040 ------- 1 0.0 3.0 63 109
r 1.34104 0 2 tcp 1040 ------- 1 0.0 3.0 62 107
+ 1.34104 2 3 tcp 1040 ------- 1 0.0 3.0 62 107
- 1.34168 2 3 tcp 1040 ------- 1 0.0 3.0 46 74
r 1.34568 3 2 ack 40 ------- 1 3.0 0.0 44 108
+ 1.34568 2 0 ack 40 ------- 1 3.0 0.0 44 108
- 1.34568 2 0 ack 40 ------- 1 3.0 0.0 44 108
r 1.35168 2 3 tcp 1040 ------- 1 0.0 3.0 45 72
+ 1.35168 3 2 ack 40 ------- 1 3.0 0.0 45 110
- 1.35168 3 2 ack 40 ------- 1 3.0 0.0 45 110
r 1.356 2 0 ack 40 ------- 1 3.0 0.0 44 108
+ 1.356 0 2 tcp 1040 ------- 1 0.0 3.0 64 111
- 1.356 0 2 tcp 1040 ------- 1 0.0 3.0 64 111
r 1.35768 0 2 tcp 1040 ------- 1 0.0 3.0 63 109
+ 1.35768 2 3 tcp 1040 ------- 1 0.0 3.0 63 109
- 1.35832 2 3 tcp 1040 ------- 1 0.0 3.0 47 76
r 1.36232 3 2 ack 40 ------- 1 3.0 0.0 45 110
+ 1.36232 2 0 ack 40 ------- 1 3.0 0.0 45 110
- 1.36232 2 0 ack 40 ------- 1 3.0 0.0 45 110
r 1.36832 2 3 tcp 1040 ------- 1 0.0 3.0 46 74
+ 1.36832 3 2 ack 40 ------- 1 3.0 0.0 46 112
- 1.36832 3 2 ack 40 ------- 1 3.0 0.0 46 112
r 1.37264 2 0 ack 40 ------- 1 3.0 0.0 45 110
+ 1.37264 0 2 tcp 1040 ------- 1 0.0 3.0 65 113
- 1.37264 0 2 tcp 1040 ------- 1 0.0 3.0 65 113
r 1.37432 0 2 tcp 1040 ------- 1 0.0 3.0 64 111
+ 1.37432 2 3 tcp 1040 ------- 1 0.0 3.0 64 111
- 1.37496 2 3 tcp 1040 ------- 1 0.0 3.0 48 78
r 1.37896 3 2 ack 40 ------- 1 3.0 0.0 46 112
+ 1.37896 2 0 ack 40 ------- 1 3.0 0.0 46 112
- 1.37896 2 0 ack 40 ------- 1 3.0 0.0 46 112
r 1.38496 2 3 tcp 1040 ------- 1 0.0 3.0 47 76
+ 1.38496 3 2 ack 40 ------- 1 3.0 0.0 47 114
- 1.38496 3 2 ack 40 ------- 1 3.0 0.0 47 114
r 1.38928 2 0 ack 40 ------- 1 3.0 0.0 46 112
+ 1.38928 0 2 tcp 1040 ------- 1 0.0 3.0 66 115
- 1.38928 0 2 tcp 1040 ------- 1 0.0 3.0 66 115
r 1.39096 0 2 tcp 1040 ------- 1 0.0 3.0 65 113
+ 1.39096 2 3 tcp 1040 ------- 1 0.0 3.0 65 113
- 1.3916 2 3 tcp 1040 ------- 1 0.0 3.0 49 80
r 1.3956 3 2 ack 40 ------- 1 3.0 0.0 47 114
+ 1.3956 2 0 ack 40 ------- 1 3.0 0.0 47 114
- 1.3956 2 0 ack 40 ------- 1 3.0 0.0 47 114
r 1.4016 2 3 tcp 1040 ------- 1 0.0 3.0 48 78